   2   2   0   0
  0.5000000E+03  0.1000000E-08  0.1000000E-08  0.1000000E-08  0.5000000E-15
  1.000000000000000E-004
  CAR 
 unknown system                          
      4.61119871    -33.05296996  301     -8.50848671      1.00000000
    -33.053  0.0000E+00  0.0000E+00
    -32.927  0.0000E+00  0.0000E+00
    -32.802  0.0000E+00  0.0000E+00
    -32.676  0.0000E+00  0.0000E+00
    -32.551  0.0000E+00  0.0000E+00
    -32.425  0.0000E+00  0.0000E+00
    -32.300  0.0000E+00  0.0000E+00
    -32.174  0.0000E+00  0.0000E+00
    -32.049  0.0000E+00  0.0000E+00
    -31.923  0.0000E+00  0.0000E+00
    -31.797  0.0000E+00  0.0000E+00
    -31.672  0.0000E+00  0.0000E+00
    -31.546 -0.4646-181 -0.5833-182
    -31.421 -0.6825E-26 -0.8569E-27
    -31.295  0.1593E+02  0.2000E+01
    -31.170  0.0000E+00  0.2000E+01
    -31.044  0.0000E+00  0.2000E+01
    -30.919  0.0000E+00  0.2000E+01
    -30.793  0.0000E+00  0.2000E+01
    -30.668  0.0000E+00  0.2000E+01
    -30.542  0.0000E+00  0.2000E+01
    -30.416  0.0000E+00  0.2000E+01
    -30.291  0.0000E+00  0.2000E+01
    -30.165  0.0000E+00  0.2000E+01
    -30.040  0.0000E+00  0.2000E+01
    -29.914  0.0000E+00  0.2000E+01
    -29.789  0.0000E+00  0.2000E+01
    -29.663  0.0000E+00  0.2000E+01
    -29.538  0.0000E+00  0.2000E+01
    -29.412  0.0000E+00  0.2000E+01
    -29.287  0.0000E+00  0.2000E+01
    -29.161  0.0000E+00  0.2000E+01
    -29.035  0.0000E+00  0.2000E+01
    -28.910  0.0000E+00  0.2000E+01
    -28.784  0.0000E+00  0.2000E+01
    -28.659  0.0000E+00  0.2000E+01
    -28.533  0.0000E+00  0.2000E+01
    -28.408  0.0000E+00  0.2000E+01
    -28.282  0.0000E+00  0.2000E+01
    -28.157  0.0000E+00  0.2000E+01
    -28.031  0.0000E+00  0.2000E+01
    -27.906  0.0000E+00  0.2000E+01
    -27.780  0.0000E+00  0.2000E+01
    -27.654  0.0000E+00  0.2000E+01
    -27.529  0.0000E+00  0.2000E+01
    -27.403  0.0000E+00  0.2000E+01
    -27.278  0.0000E+00  0.2000E+01
    -27.152  0.0000E+00  0.2000E+01
    -27.027  0.0000E+00  0.2000E+01
    -26.901  0.0000E+00  0.2000E+01
    -26.776  0.0000E+00  0.2000E+01
    -26.650  0.0000E+00  0.2000E+01
    -26.525  0.0000E+00  0.2000E+01
    -26.399  0.0000E+00  0.2000E+01
    -26.273  0.0000E+00  0.2000E+01
    -26.148  0.0000E+00  0.2000E+01
    -26.022  0.0000E+00  0.2000E+01
    -25.897  0.0000E+00  0.2000E+01
    -25.771  0.0000E+00  0.2000E+01
    -25.646  0.0000E+00  0.2000E+01
    -25.520  0.0000E+00  0.2000E+01
    -25.395  0.0000E+00  0.2000E+01
    -25.269  0.0000E+00  0.2000E+01
    -25.143  0.0000E+00  0.2000E+01
    -25.018  0.0000E+00  0.2000E+01
    -24.892  0.0000E+00  0.2000E+01
    -24.767  0.0000E+00  0.2000E+01
    -24.641  0.0000E+00  0.2000E+01
    -24.516  0.0000E+00  0.2000E+01
    -24.390  0.0000E+00  0.2000E+01
    -24.265  0.0000E+00  0.2000E+01
    -24.139  0.0000E+00  0.2000E+01
    -24.014  0.0000E+00  0.2000E+01
    -23.888  0.0000E+00  0.2000E+01
    -23.762  0.0000E+00  0.2000E+01
    -23.637  0.0000E+00  0.2000E+01
    -23.511  0.0000E+00  0.2000E+01
    -23.386  0.0000E+00  0.2000E+01
    -23.260  0.0000E+00  0.2000E+01
    -23.135  0.0000E+00  0.2000E+01
    -23.009  0.0000E+00  0.2000E+01
    -22.884  0.0000E+00  0.2000E+01
    -22.758  0.0000E+00  0.2000E+01
    -22.633  0.0000E+00  0.2000E+01
    -22.507  0.0000E+00  0.2000E+01
    -22.381  0.0000E+00  0.2000E+01
    -22.256  0.0000E+00  0.2000E+01
    -22.130  0.0000E+00  0.2000E+01
    -22.005  0.0000E+00  0.2000E+01
    -21.879  0.0000E+00  0.2000E+01
    -21.754  0.0000E+00  0.2000E+01
    -21.628  0.0000E+00  0.2000E+01
    -21.503  0.0000E+00  0.2000E+01
    -21.377  0.0000E+00  0.2000E+01
    -21.252  0.0000E+00  0.2000E+01
    -21.126  0.0000E+00  0.2000E+01
    -21.000  0.0000E+00  0.2000E+01
    -20.875  0.0000E+00  0.2000E+01
    -20.749  0.0000E+00  0.2000E+01
    -20.624  0.0000E+00  0.2000E+01
    -20.498  0.0000E+00  0.2000E+01
    -20.373  0.0000E+00  0.2000E+01
    -20.247  0.0000E+00  0.2000E+01
    -20.122  0.0000E+00  0.2000E+01
    -19.996  0.0000E+00  0.2000E+01
    -19.871  0.0000E+00  0.2000E+01
    -19.745  0.0000E+00  0.2000E+01
    -19.619  0.0000E+00  0.2000E+01
    -19.494  0.0000E+00  0.2000E+01
    -19.368  0.0000E+00  0.2000E+01
    -19.243  0.0000E+00  0.2000E+01
    -19.117  0.0000E+00  0.2000E+01
    -18.992  0.0000E+00  0.2000E+01
    -18.866  0.0000E+00  0.2000E+01
    -18.741  0.0000E+00  0.2000E+01
    -18.615  0.0000E+00  0.2000E+01
    -18.489  0.0000E+00  0.2000E+01
    -18.364  0.0000E+00  0.2000E+01
    -18.238  0.0000E+00  0.2000E+01
    -18.113  0.0000E+00  0.2000E+01
    -17.987  0.0000E+00  0.2000E+01
    -17.862  0.0000E+00  0.2000E+01
    -17.736  0.0000E+00  0.2000E+01
    -17.611  0.0000E+00  0.2000E+01
    -17.485  0.0000E+00  0.2000E+01
    -17.360  0.0000E+00  0.2000E+01
    -17.234  0.0000E+00  0.2000E+01
    -17.108  0.0000E+00  0.2000E+01
    -16.983  0.0000E+00  0.2000E+01
    -16.857  0.0000E+00  0.2000E+01
    -16.732  0.0000E+00  0.2000E+01
    -16.606  0.0000E+00  0.2000E+01
    -16.481  0.0000E+00  0.2000E+01
    -16.355  0.0000E+00  0.2000E+01
    -16.230  0.0000E+00  0.2000E+01
    -16.104  0.0000E+00  0.2000E+01
    -15.979  0.0000E+00  0.2000E+01
    -15.853  0.0000E+00  0.2000E+01
    -15.727  0.0000E+00  0.2000E+01
    -15.602  0.0000E+00  0.2000E+01
    -15.476  0.0000E+00  0.2000E+01
    -15.351  0.0000E+00  0.2000E+01
    -15.225  0.0000E+00  0.2000E+01
    -15.100  0.0000E+00  0.2000E+01
    -14.974  0.0000E+00  0.2000E+01
    -14.849  0.0000E+00  0.2000E+01
    -14.723  0.0000E+00  0.2000E+01
    -14.598  0.0000E+00  0.2000E+01
    -14.472  0.0000E+00  0.2000E+01
    -14.346  0.0000E+00  0.2000E+01
    -14.221  0.0000E+00  0.2000E+01
    -14.095  0.0000E+00  0.2000E+01
    -13.970 -0.1689E-57  0.2000E+01
    -13.844  0.1596E+02  0.4004E+01
    -13.719  0.0000E+00  0.4000E+01
    -13.593  0.0000E+00  0.4000E+01
    -13.468  0.0000E+00  0.4000E+01
    -13.342  0.0000E+00  0.4000E+01
    -13.217 -0.1176-127  0.4000E+01
    -13.091 -0.6214E-08  0.4000E+01
    -12.965  0.3186E+02  0.8000E+01
    -12.840  0.0000E+00  0.8000E+01
    -12.714  0.0000E+00  0.8000E+01
    -12.589  0.0000E+00  0.8000E+01
    -12.463  0.0000E+00  0.8000E+01
    -12.338  0.0000E+00  0.8000E+01
    -12.212  0.0000E+00  0.8000E+01
    -12.087  0.0000E+00  0.8000E+01
    -11.961  0.0000E+00  0.8000E+01
    -11.835  0.0000E+00  0.8000E+01
    -11.710  0.0000E+00  0.8000E+01
    -11.584  0.0000E+00  0.8000E+01
    -11.459  0.0000E+00  0.8000E+01
    -11.333  0.0000E+00  0.8000E+01
    -11.208  0.0000E+00  0.8000E+01
    -11.082  0.0000E+00  0.8000E+01
    -10.957  0.0000E+00  0.8000E+01
    -10.831  0.0000E+00  0.8000E+01
    -10.706  0.0000E+00  0.8000E+01
    -10.580  0.0000E+00  0.8000E+01
    -10.454  0.0000E+00  0.8000E+01
    -10.329  0.0000E+00  0.8000E+01
    -10.203  0.0000E+00  0.8000E+01
    -10.078  0.0000E+00  0.8000E+01
     -9.952  0.0000E+00  0.8000E+01
     -9.827  0.0000E+00  0.8000E+01
     -9.701  0.0000E+00  0.8000E+01
     -9.576  0.0000E+00  0.8000E+01
     -9.450  0.0000E+00  0.8000E+01
     -9.325  0.0000E+00  0.8000E+01
     -9.199  0.0000E+00  0.8000E+01
     -9.073  0.0000E+00  0.8000E+01
     -8.948  0.0000E+00  0.8000E+01
     -8.822  0.0000E+00  0.8000E+01
     -8.697 -0.2968E-80  0.8000E+01
     -8.571 -0.5645E+00  0.7929E+01
     -8.446  0.0000E+00  0.1000E+02
     -8.320  0.0000E+00  0.1000E+02
     -8.195  0.0000E+00  0.1000E+02
     -8.069  0.0000E+00  0.1000E+02
     -7.944  0.0000E+00  0.1000E+02
     -7.818  0.0000E+00  0.1000E+02
     -7.692  0.0000E+00  0.1000E+02
     -7.567  0.0000E+00  0.1000E+02
     -7.441  0.0000E+00  0.1000E+02
     -7.316  0.0000E+00  0.1000E+02
     -7.190  0.0000E+00  0.1000E+02
     -7.065  0.0000E+00  0.1000E+02
     -6.939  0.0000E+00  0.1000E+02
     -6.814  0.0000E+00  0.1000E+02
     -6.688  0.0000E+00  0.1000E+02
     -6.563  0.0000E+00  0.1000E+02
     -6.437  0.0000E+00  0.1000E+02
     -6.311  0.0000E+00  0.1000E+02
     -6.186  0.0000E+00  0.1000E+02
     -6.060  0.0000E+00  0.1000E+02
     -5.935  0.0000E+00  0.1000E+02
     -5.809  0.0000E+00  0.1000E+02
     -5.684  0.0000E+00  0.1000E+02
     -5.558  0.0000E+00  0.1000E+02
     -5.433  0.0000E+00  0.1000E+02
     -5.307  0.0000E+00  0.1000E+02
     -5.181  0.0000E+00  0.1000E+02
     -5.056  0.0000E+00  0.1000E+02
     -4.930  0.0000E+00  0.1000E+02
     -4.805  0.0000E+00  0.1000E+02
     -4.679  0.0000E+00  0.1000E+02
     -4.554  0.0000E+00  0.1000E+02
     -4.428  0.0000E+00  0.1000E+02
     -4.303  0.0000E+00  0.1000E+02
     -4.177  0.0000E+00  0.1000E+02
     -4.052  0.0000E+00  0.1000E+02
     -3.926  0.0000E+00  0.1000E+02
     -3.800  0.0000E+00  0.1000E+02
     -3.675  0.0000E+00  0.1000E+02
     -3.549  0.0000E+00  0.1000E+02
     -3.424  0.0000E+00  0.1000E+02
     -3.298  0.0000E+00  0.1000E+02
     -3.173  0.0000E+00  0.1000E+02
     -3.047  0.0000E+00  0.1000E+02
     -2.922  0.0000E+00  0.1000E+02
     -2.796  0.0000E+00  0.1000E+02
     -2.671  0.0000E+00  0.1000E+02
     -2.545  0.0000E+00  0.1000E+02
     -2.419  0.0000E+00  0.1000E+02
     -2.294  0.0000E+00  0.1000E+02
     -2.168  0.0000E+00  0.1000E+02
     -2.043  0.0000E+00  0.1000E+02
     -1.917  0.0000E+00  0.1000E+02
     -1.792  0.0000E+00  0.1000E+02
     -1.666  0.0000E+00  0.1000E+02
     -1.541  0.0000E+00  0.1000E+02
     -1.415  0.0000E+00  0.1000E+02
     -1.290  0.0000E+00  0.1000E+02
     -1.164  0.0000E+00  0.1000E+02
     -1.038  0.0000E+00  0.1000E+02
     -0.913  0.0000E+00  0.1000E+02
     -0.787  0.0000E+00  0.1000E+02
     -0.662 -0.1423E-65  0.1000E+02
     -0.536  0.1731E+02  0.1217E+02
     -0.411 -0.9246-158  0.1400E+02
     -0.285 -0.2192E-17  0.1400E+02
     -0.160  0.1593E+02  0.1600E+02
     -0.034  0.0000E+00  0.1600E+02
      0.091  0.0000E+00  0.1600E+02
      0.217  0.0000E+00  0.1600E+02
      0.343  0.0000E+00  0.1600E+02
      0.468  0.0000E+00  0.1600E+02
      0.594  0.0000E+00  0.1600E+02
      0.719  0.0000E+00  0.1600E+02
      0.845  0.0000E+00  0.1600E+02
      0.970 -0.6279E-45  0.1600E+02
      1.096  0.1600E+02  0.1801E+02
      1.221  0.3191E+02  0.2201E+02
      1.347  0.3186E+02  0.2600E+02
      1.473  0.1593E+02  0.2800E+02
      1.598  0.0000E+00  0.2800E+02
      1.724  0.0000E+00  0.2800E+02
      1.849  0.0000E+00  0.2800E+02
      1.975  0.0000E+00  0.2800E+02
      2.100  0.0000E+00  0.2800E+02
      2.226  0.0000E+00  0.2800E+02
      2.351 -0.1731-138  0.2800E+02
      2.477 -0.3231E-11  0.2800E+02
      2.602  0.6372E+02  0.3600E+02
      2.728 -0.6798E-12  0.3600E+02
      2.854  0.4235E+02  0.4132E+02
      2.979  0.1593E+02  0.4800E+02
      3.105  0.0000E+00  0.4800E+02
      3.230  0.0000E+00  0.4800E+02
      3.356  0.0000E+00  0.4800E+02
      3.481  0.0000E+00  0.4800E+02
      3.607  0.0000E+00  0.4800E+02
      3.732  0.0000E+00  0.4800E+02
      3.858  0.0000E+00  0.4800E+02
      3.983  0.0000E+00  0.4800E+02
      4.109  0.0000E+00  0.4800E+02
      4.235  0.0000E+00  0.4800E+02
      4.360  0.0000E+00  0.4800E+02
      4.486  0.0000E+00  0.4800E+02
      4.611  0.0000E+00  0.4800E+02
