       N       E                     dE             d eps       ncg     rms          rms(c)
DAV:   1    -0.131397318692E+02   -0.13140E+02   -0.23590E-11    48   0.111E-05    0.366E-06
DAV:   2    -0.131397318691E+02    0.77989E-10   -0.15810E-11    96   0.276E-06
   1 F= -.13139732E+02 E0= -.13139732E+02  d E =0.102959E-11
