<?xml version="1.0" encoding="ISO-8859-1"?>
<modeling>
 <generator>
  <i name="program" type="string">vasp </i>
  <i name="version" type="string">5.4.1  </i>
  <i name="subversion" type="string">05Feb16 (build Apr 25 2018 11:37:45) complex                          parallel </i>
  <i name="platform" type="string">LinuxIFC </i>
  <i name="date" type="string">2023 01 26 </i>
  <i name="time" type="string">11:54:38 </i>
 </generator>
 <incar>
  <i type="string" name="PREC">normal</i>
  <i name="EDIFF">      0.00000100</i>
  <i name="ENCUT">    350.00000000</i>
  <i type="int" name="ISMEAR">     1</i>
  <i name="SIGMA">      0.01000000</i>
  <v type="int" name="KPOINT_BSE">    -1     0     0     0</v>
  <i type="string" name="GGA"> PE</i>
 </incar>
 <kpoints>
  <generation param="Monkhorst-Pack">
   <v type="int" name="divisions">       1        1        1 </v>
   <v name="usershift">      0.00000000       0.00000000       0.00000000 </v>
   <v name="genvec1">      1.00000000       0.00000000       0.00000000 </v>
   <v name="genvec2">      0.00000000       1.00000000       0.00000000 </v>
   <v name="genvec3">      0.00000000       0.00000000       1.00000000 </v>
   <v name="shift">      0.00000000       0.00000000       0.00000000 </v>
  </generation>
  <varray name="kpointlist" >
   <v>       0.00000000       0.00000000       0.00000000 </v>
  </varray>
  <varray name="weights" >
   <v>       1.00000000 </v>
  </varray>
 </kpoints>
 <parameters>
  <separator name="general" >
   <i type="string" name="SYSTEM">unknown system</i>
   <i type="logical" name="LCOMPAT"> F  </i>
  </separator>
  <separator name="electronic" >
   <i type="string" name="PREC">normal</i>
   <i name="ENMAX">    350.00000000</i>
   <i name="ENAUG">    644.87300000</i>
   <i name="EDIFF">      0.00000100</i>
   <i type="int" name="IALGO">    38</i>
   <i type="int" name="IWAVPR">    10</i>
   <i type="int" name="NBANDS">    24</i>
   <i name="NELECT">     10.00000000</i>
   <i type="int" name="TURBO">     0</i>
   <i type="int" name="IRESTART">     0</i>
   <i type="int" name="NREBOOT">     0</i>
   <i type="int" name="NMIN">     0</i>
   <i name="EREF">      0.00000000</i>
   <separator name="electronic smearing" >
    <i type="int" name="ISMEAR">     1</i>
    <i name="SIGMA">      0.01000000</i>
    <i name="KSPACING">      0.50000000</i>
    <i type="logical" name="KGAMMA"> T  </i>
   </separator>
   <separator name="electronic projectors" >
    <i type="logical" name="LREAL"> F  </i>
    <v name="ROPT">      0.00000000      0.00000000</v>
    <i type="int" name="LMAXPAW">  -100</i>
    <i type="int" name="LMAXMIX">     2</i>
    <i type="logical" name="NLSPLINE"> F  </i>
   </separator>
   <separator name="electronic startup" >
    <i type="int" name="ISTART">     1</i>
    <i type="int" name="ICHARG">     0</i>
    <i type="int" name="INIWAV">     1</i>
   </separator>
   <separator name="electronic spin" >
    <i type="int" name="ISPIN">     1</i>
    <i type="logical" name="LNONCOLLINEAR"> F  </i>
    <v name="MAGMOM">      1.00000000      1.00000000</v>
    <i name="NUPDOWN">     -1.00000000</i>
    <i type="logical" name="LSORBIT"> F  </i>
    <v name="SAXIS">      0.00000000      0.00000000      1.00000000</v>
    <i type="logical" name="LSPIRAL"> F  </i>
    <v name="QSPIRAL">      0.00000000      0.00000000      0.00000000</v>
    <i type="logical" name="LZEROZ"> F  </i>
   </separator>
   <separator name="electronic exchange-correlation" >
    <i type="logical" name="LASPH"> F  </i>
    <i type="logical" name="LMETAGGA"> F  </i>
   </separator>
   <separator name="electronic convergence" >
    <i type="int" name="NELM">    60</i>
    <i type="int" name="NELMDL">     0</i>
    <i type="int" name="NELMIN">     2</i>
    <i name="ENINI">    350.00000000</i>
    <separator name="electronic convergence detail" >
     <i type="logical" name="LDIAG"> T  </i>
     <i type="logical" name="LSUBROT"> F  </i>
     <i name="WEIMIN">      0.00000000</i>
     <i name="EBREAK">      0.00000001</i>
     <i name="DEPER">      0.30000000</i>
     <i type="int" name="NRMM">     4</i>
     <i name="TIME">      0.40000000</i>
    </separator>
   </separator>
   <separator name="electronic mixer" >
    <i name="AMIX">      0.40000000</i>
    <i name="BMIX">      1.00000000</i>
    <i name="AMIN">      0.10000000</i>
    <i name="AMIX_MAG">      1.60000000</i>
    <i name="BMIX_MAG">      1.00000000</i>
    <separator name="electronic mixer details" >
     <i type="int" name="IMIX">     4</i>
     <i type="logical" name="MIXFIRST"> F  </i>
     <i type="int" name="MAXMIX">   -45</i>
     <i name="WC">    100.00000000</i>
     <i type="int" name="INIMIX">     1</i>
     <i type="int" name="MIXPRE">     1</i>
     <i type="int" name="MREMOVE">     5</i>
    </separator>
   </separator>
   <separator name="electronic dipolcorrection" >
    <i type="logical" name="LDIPOL"> F  </i>
    <i type="logical" name="LMONO"> F  </i>
    <i type="int" name="IDIPOL">     0</i>
    <i name="EPSILON">      1.00000000</i>
    <v name="DIPOL">   -100.00000000   -100.00000000   -100.00000000</v>
    <i name="EFIELD">      0.00000000</i>
   </separator>
  </separator>
  <separator name="grids" >
   <i type="int" name="NGX">    48</i>
   <i type="int" name="NGY">    48</i>
   <i type="int" name="NGZ">    48</i>
   <i type="int" name="NGXF">    96</i>
   <i type="int" name="NGYF">    96</i>
   <i type="int" name="NGZF">    96</i>
   <i type="logical" name="ADDGRID"> F  </i>
  </separator>
  <separator name="ionic" >
   <i type="int" name="NSW">     0</i>
   <i type="int" name="IBRION">    -1</i>
   <i type="int" name="ISIF">     2</i>
   <i name="PSTRESS">      0.00000000</i>
   <i name="EDIFFG">      0.00001000</i>
   <i type="int" name="NFREE">     0</i>
   <i name="POTIM">      0.50000000</i>
   <i name="SMASS">     -3.00000000</i>
   <i name="SCALEE">      1.00000000</i>
  </separator>
  <separator name="ionic md" >
   <i name="TEBEG">      0.00010000</i>
   <i name="TEEND">      0.00010000</i>
   <i type="int" name="NBLOCK">     1</i>
   <i type="int" name="KBLOCK">     1</i>
   <i type="int" name="NPACO">   256</i>
   <i name="APACO">     16.00000000</i>
  </separator>
  <separator name="symmetry" >
   <i type="int" name="ISYM">     2</i>
   <i name="SYMPREC">      0.00001000</i>
  </separator>
  <separator name="dos" >
   <i type="logical" name="LORBIT"> F  </i>
   <v name="RWIGS">     -1.00000000     -1.00000000</v>
   <i type="int" name="NEDOS">   301</i>
   <i name="EMIN">     10.00000000</i>
   <i name="EMAX">    -10.00000000</i>
   <i name="EFERMI">      0.00000000</i>
  </separator>
  <separator name="writing" >
   <i type="int" name="NWRITE">     2</i>
   <i type="logical" name="LWAVE"> T  </i>
   <i type="logical" name="LCHARG"> T  </i>
   <i type="logical" name="LPARD"> F  </i>
   <i type="logical" name="LVTOT"> F  </i>
   <i type="logical" name="LVHAR"> F  </i>
   <i type="logical" name="LELF"> F  </i>
   <i type="logical" name="LOPTICS"> F  </i>
   <v name="STM">      0.00000000      0.00000000      0.00000000      0.00000000      0.00000000      0.00000000      0.00000000</v>
  </separator>
  <separator name="performance" >
   <i type="int" name="NPAR">    24</i>
   <i type="int" name="NSIM">     4</i>
   <i type="int" name="NBLK">    -1</i>
   <i type="logical" name="LPLANE"> T  </i>
   <i type="logical" name="LSCALAPACK"> F  </i>
   <i type="logical" name="LSCAAWARE"> F  </i>
   <i type="logical" name="LSCALU"> F  </i>
   <i type="logical" name="LASYNC"> F  </i>
   <i type="logical" name="LORBITALREAL"> F  </i>
  </separator>
  <separator name="miscellaneous" >
   <i type="int" name="IDIOT">     3</i>
   <i type="logical" name="LMUSIC"> F  </i>
   <v name="POMASS">     12.01100000     16.00000000</v>
   <v name="DARWINR">      0.00000000      0.00000000</v>
   <v name="DARWINV">      1.00000000      1.00000000</v>
   <i type="logical" name="LCORR"> T  </i>
  </separator>
  <i type="logical" name="GGA_COMPAT"> T  </i>
  <i type="logical" name="LBERRY"> F  </i>
  <i type="int" name="ICORELEVEL">     0</i>
  <i type="logical" name="LDAU"> F  </i>
  <i type="int" name="I_CONSTRAINED_M">     0</i>
  <separator name="electronic exchange-correlation" >
   <i type="string" name="GGA">PE</i>
   <i type="int" name="VOSKOWN">     0</i>
   <i type="logical" name="LHFCALC"> F  </i>
   <i type="string" name="PRECFOCK"></i>
   <i type="logical" name="LSYMGRAD"> F  </i>
   <i type="logical" name="LHFONE"> F  </i>
   <i type="logical" name="LRHFCALC"> F  </i>
   <i type="logical" name="LTHOMAS"> F  </i>
   <i type="logical" name="LMODELHF"> F  </i>
   <i name="ENCUT4O">     -1.00000000</i>
   <i type="int" name="EXXOEP">     0</i>
   <i type="int" name="FOURORBIT">     0</i>
   <i name="AEXX">      0.00000000</i>
   <i name="HFALPHA">      0.00000000</i>
   <i name="MCALPHA">      0.00000000</i>
   <i name="ALDAX">      1.00000000</i>
   <i name="AGGAX">      1.00000000</i>
   <i name="ALDAC">      1.00000000</i>
   <i name="AGGAC">      1.00000000</i>
   <i type="int" name="NKREDX">     1</i>
   <i type="int" name="NKREDY">     1</i>
   <i type="int" name="NKREDZ">     1</i>
   <i type="logical" name="SHIFTRED"> F  </i>
   <i type="logical" name="ODDONLY"> F  </i>
   <i type="logical" name="EVENONLY"> F  </i>
   <i type="int" name="LMAXFOCK">     0</i>
   <i type="int" name="NMAXFOCKAE">     0</i>
   <i type="logical" name="LFOCKAEDFT"> F  </i>
   <i name="HFSCREEN">      0.00000000</i>
   <i name="HFSCREENC">      0.00000000</i>
   <i type="int" name="NBANDSGWLOW">     0</i>
  </separator>
  <separator name="vdW DFT" >
   <i type="logical" name="LUSE_VDW"> F  </i>
   <i name="Zab_VDW">     -0.84910000</i>
   <i name="PARAM1">      0.12340000</i>
   <i name="PARAM2">      1.00000000</i>
   <i name="PARAM3">      0.00000000</i>
  </separator>
  <separator name="model GW" >
   <i type="int" name="MODEL_GW">     0</i>
   <i name="MODEL_EPS0">    300.00000000</i>
   <i name="MODEL_ALPHA">      1.00000000</i>
  </separator>
  <separator name="linear response parameters" >
   <i type="logical" name="LEPSILON"> F  </i>
   <i type="logical" name="LRPA"> F  </i>
   <i type="logical" name="LNABLA"> F  </i>
   <i type="logical" name="LVEL"> F  </i>
   <i type="int" name="KINTER">     0</i>
   <i name="CSHIFT">      0.10000000</i>
   <i name="OMEGAMAX">     -1.00000000</i>
   <i name="DEG_THRESHOLD">      0.00200000</i>
  </separator>
  <separator name="orbital magnetization" >
   <i type="logical" name="NUCIND"> F  </i>
   <v name="MAGPOS">      0.00000000      0.00000000      0.00000000</v>
   <i type="logical" name="LNICSALL"> T  </i>
   <i type="logical" name="ORBITALMAG"> F  </i>
   <i type="logical" name="LMAGBLOCH"> F  </i>
   <i type="logical" name="LCHIMAG"> F  </i>
   <i type="logical" name="LGAUGE"> T  </i>
   <i type="int" name="MAGATOM">     0</i>
   <v name="MAGDIPOL">      0.00000000      0.00000000      0.00000000</v>
   <v name="AVECCONST">      0.00000000      0.00000000      0.00000000</v>
  </separator>
  <separator name="response functions" >
   <i type="logical" name="LADDER"> F  </i>
   <i type="logical" name="LFXC"> F  </i>
   <i type="logical" name="LHARTREE"> T  </i>
   <i type="int" name="IBSE">     0</i>
   <v type="int" name="KPOINT">    -1     0     0     0</v>
   <i type="logical" name="LTCTE"> F  </i>
   <i type="logical" name="LTETE"> F  </i>
   <i type="logical" name="LTRIPLET"> F  </i>
   <i type="logical" name="LFXCEPS"> F  </i>
   <i type="logical" name="LFXHEG"> F  </i>
   <i type="int" name="NATURALO">     0</i>
   <i type="logical" name="L2ORDER"> F  </i>
   <i type="logical" name="LUSEW"> F  </i>
   <i name="ENCUTGW">     -2.00000000</i>
   <i name="ENCUTGWSOFT">     -2.00000000</i>
   <i name="ENCUTLF">     -1.00000000</i>
   <i type="int" name="LMAXMP2">    -1</i>
   <i name="SCISSOR">      0.00000000</i>
   <i type="int" name="NOMEGA">     0</i>
   <i type="int" name="NOMEGAR">     0</i>
   <i type="int" name="NBANDSGW">    -1</i>
   <i type="int" name="NBANDSO">    -1</i>
   <i type="int" name="NBANDSV">    -1</i>
   <i type="int" name="NELM">     1</i>
   <i type="int" name="NELMHF">     1</i>
   <i type="int" name="DIM">     3</i>
   <i type="int" name="ANTIRES">     0</i>
   <i name="OMEGAMAX">    -30.00000000</i>
   <i name="OMEGAMIN">    -30.00000000</i>
   <i name="OMEGATL">   -200.00000000</i>
   <i type="int" name="OMEGAGRID">     0</i>
   <i name="CSHIFT">     -0.10000000</i>
   <i type="logical" name="SELFENERGY"> F  </i>
   <i type="logical" name="LSPECTRAL"> F  </i>
   <i type="logical" name="LSPECTRALGW"> F  </i>
   <i type="logical" name="LSINGLES"> F  </i>
   <i type="logical" name="LFERMIGW"> F  </i>
   <i type="logical" name="ODDONLYGW"> F  </i>
   <i type="logical" name="EVENONLYGW"> F  </i>
   <i type="int" name="NKREDLFX">     1</i>
   <i type="int" name="NKREDLFY">     1</i>
   <i type="int" name="NKREDLFZ">     1</i>
   <i type="int" name="MAXMEM">  1800</i>
   <i type="int" name="TELESCOPE">     0</i>
   <i type="int" name="TAUPAR">     1</i>
   <i type="int" name="OMEGAPAR">    -1</i>
   <i name="LAMBDA">      1.00000000</i>
  </separator>
  <separator name="External order field" >
   <i name="OFIELD_KAPPA">      0.00000000</i>
   <v name="OFIELD_K">      0.00000000      0.00000000      0.00000000</v>
   <i name="OFIELD_Q6_NEAR">      0.00000000</i>
   <i name="OFIELD_Q6_FAR">      0.00000000</i>
   <i name="OFIELD_A">      0.00000000</i>
  </separator>
 </parameters>
 <atominfo>
  <atoms>       2 </atoms>
  <types>       2 </types>
  <array name="atoms" >
   <dimension dim="1">ion</dimension>
   <field type="string">element</field>
   <field type="int">atomtype</field>
   <set>
    <rc><c>C </c><c>   1</c></rc>
    <rc><c>O </c><c>   2</c></rc>
   </set>
  </array>
  <array name="atomtypes" >
   <dimension dim="1">type</dimension>
   <field type="int">atomspertype</field>
   <field type="string">element</field>
   <field>mass</field>
   <field>valence</field>
   <field type="string">pseudopotential</field>
   <set>
    <rc><c>   1</c><c>C </c><c>     12.01100000</c><c>      4.00000000</c><c>  PAW_PBE C 08Apr2002                   </c></rc>
    <rc><c>   1</c><c>O </c><c>     16.00000000</c><c>      6.00000000</c><c>  PAW_PBE O 08Apr2002                   </c></rc>
   </set>
  </array>
 </atominfo>
 <structure name="initialpos" >
  <crystal>
   <varray name="basis" >
    <v>      10.00000000       0.00000000       0.00000000 </v>
    <v>       0.00000000      10.00000000       0.00000000 </v>
    <v>       0.00000000       0.00000000      10.00000000 </v>
   </varray>
   <i name="volume">   1000.00000000 </i>
   <varray name="rec_basis" >
    <v>       0.10000000       0.00000000       0.00000000 </v>
    <v>       0.00000000       0.10000000       0.00000000 </v>
    <v>       0.00000000       0.00000000       0.10000000 </v>
   </varray>
  </crystal>
  <varray name="positions" >
   <v>       0.50000000       0.50000000       0.45000000 </v>
   <v>       0.50000000       0.50000000       0.55000000 </v>
  </varray>
 </structure>
 <calculation>
  <scstep>
   <time name="dav">    0.04    0.04</time>
   <time name="total">    0.10    0.10</time>
   <energy>
    <i name="alphaZ">      0.43695755 </i>
    <i name="ewald">    142.04706552 </i>
    <i name="hartreedc">   -614.01235527 </i>
    <i name="XCdc">     41.64980785 </i>
    <i name="pawpsdc">   1165.13074805 </i>
    <i name="pawaedc">  -1167.78385621 </i>
    <i name="eentropy">      0.00000000 </i>
    <i name="bandstr">   -159.67932982 </i>
    <i name="atom">    579.07123046 </i>
    <i name="e_fr_energy">    -13.13973187 </i>
    <i name="e_wo_entrp">    -13.13973187 </i>
    <i name="e_0_energy">    -13.13973187 </i>
   </energy>
  </scstep>
  <scstep>
   <time name="dav">    0.07    0.07</time>
   <time name="total">    0.10    0.10</time>
   <energy>
    <i name="alphaZ">      0.43695755 </i>
    <i name="ewald">    142.04706552 </i>
    <i name="hartreedc">   -614.01234447 </i>
    <i name="XCdc">     41.64980725 </i>
    <i name="pawpsdc">   1165.13076824 </i>
    <i name="pawaedc">  -1167.78387631 </i>
    <i name="eentropy">      0.00000000 </i>
    <i name="bandstr">   -159.67934012 </i>
    <i name="atom">    579.07123046 </i>
    <i name="e_fr_energy">    -13.13973187 </i>
    <i name="e_wo_entrp">    -13.13973187 </i>
    <i name="e_0_energy">    -13.13973187 </i>
   </energy>
  </scstep>
  <structure>
   <crystal>
    <varray name="basis" >
     <v>      10.00000000       0.00000000       0.00000000 </v>
     <v>       0.00000000      10.00000000       0.00000000 </v>
     <v>       0.00000000       0.00000000      10.00000000 </v>
    </varray>
    <i name="volume">   1000.00000000 </i>
    <varray name="rec_basis" >
     <v>       0.10000000       0.00000000       0.00000000 </v>
     <v>       0.00000000       0.10000000       0.00000000 </v>
     <v>       0.00000000       0.00000000       0.10000000 </v>
    </varray>
   </crystal>
   <varray name="positions" >
    <v>       0.50000000       0.50000000       0.45000000 </v>
    <v>       0.50000000       0.50000000       0.55000000 </v>
   </varray>
  </structure>
  <varray name="forces" >
   <v>       0.00000000       0.00000000     -27.70951004 </v>
   <v>      -0.00000000       0.00000000      27.70951004 </v>
  </varray>
  <varray name="stress" >
   <v>      -3.75545295       0.00000000       0.00000000 </v>
   <v>       0.00000000      -3.75545295       0.00000000 </v>
   <v>       0.00000000       0.00000000      40.82237546 </v>
  </varray>
  <energy>
   <i name="e_fr_energy">    -13.13973187 </i>
   <i name="e_wo_entrp">    -13.13973187 </i>
   <i name="e_0_energy">      0.00000000 </i>
  </energy>
  <time name="totalsc">    1.38    1.45</time>
  <eigenvalues>
   <array>
    <dimension dim="1">band</dimension>
    <dimension dim="2">kpoint</dimension>
    <dimension dim="3">spin</dimension>
    <field>eigene</field>
    <field>occ</field>
    <set>
     <set comment="spin 1">
      <set comment="kpoint 1">
       <r>  -31.3410    1.0000 </r>
       <r>  -13.8527    1.0000 </r>
       <r>  -13.0434    1.0000 </r>
       <r>  -13.0434    1.0000 </r>
       <r>   -8.5591    1.0000 </r>
       <r>   -0.5367    0.0000 </r>
       <r>   -0.5367    0.0000 </r>
       <r>   -0.2188    0.0000 </r>
       <r>    1.0742    0.0000 </r>
       <r>    1.1969    0.0000 </r>
       <r>    1.1969    0.0000 </r>
       <r>    1.2914    0.0000 </r>
       <r>    1.2998    0.0000 </r>
       <r>    1.4189    0.0000 </r>
       <r>    2.5313    0.0000 </r>
       <r>    2.5392    0.0000 </r>
       <r>    2.5392    0.0000 </r>
       <r>    2.5644    0.0000 </r>
       <r>    2.7839    0.0000 </r>
       <r>    2.8021    0.0000 </r>
       <r>    2.8556    0.0000 </r>
       <r>    2.8556    0.0000 </r>
       <r>    2.8826    0.0000 </r>
       <r>    2.8992    0.0000 </r>
      </set>
     </set>
    </set>
   </array>
  </eigenvalues>
  <separator name="orbital magnetization" >
   <v name="MAGDIPOLOUT">      0.00000000      0.00000000      0.00000000</v>
  </separator>
  <dos>
   <i name="efermi">     -8.50848671 </i>
   <total>
    <array>
     <dimension dim="1">gridpoints</dimension>
     <dimension dim="2">spin</dimension>
     <field>energy</field>
     <field>total</field>
     <field>integrated</field>
     <set>
      <set comment="spin 1">
       <r>   -33.0530     0.0000     0.0000 </r>
       <r>   -32.9274     0.0000     0.0000 </r>
       <r>   -32.8019     0.0000     0.0000 </r>
       <r>   -32.6763     0.0000     0.0000 </r>
       <r>   -32.5508     0.0000     0.0000 </r>
       <r>   -32.4252     0.0000     0.0000 </r>
       <r>   -32.2997     0.0000     0.0000 </r>
       <r>   -32.1741     0.0000     0.0000 </r>
       <r>   -32.0486     0.0000     0.0000 </r>
       <r>   -31.9230     0.0000     0.0000 </r>
       <r>   -31.7975     0.0000     0.0000 </r>
       <r>   -31.6720     0.0000     0.0000 </r>
       <r>   -31.5464    -0.0000    -0.0000 </r>
       <r>   -31.4209    -0.0000    -0.0000 </r>
       <r>   -31.2953    15.9303     2.0000 </r>
       <r>   -31.1698     0.0000     2.0000 </r>
       <r>   -31.0442     0.0000     2.0000 </r>
       <r>   -30.9187     0.0000     2.0000 </r>
       <r>   -30.7931     0.0000     2.0000 </r>
       <r>   -30.6676     0.0000     2.0000 </r>
       <r>   -30.5420     0.0000     2.0000 </r>
       <r>   -30.4165     0.0000     2.0000 </r>
       <r>   -30.2909     0.0000     2.0000 </r>
       <r>   -30.1654     0.0000     2.0000 </r>
       <r>   -30.0398     0.0000     2.0000 </r>
       <r>   -29.9143     0.0000     2.0000 </r>
       <r>   -29.7887     0.0000     2.0000 </r>
       <r>   -29.6632     0.0000     2.0000 </r>
       <r>   -29.5376     0.0000     2.0000 </r>
       <r>   -29.4121     0.0000     2.0000 </r>
       <r>   -29.2866     0.0000     2.0000 </r>
       <r>   -29.1610     0.0000     2.0000 </r>
       <r>   -29.0355     0.0000     2.0000 </r>
       <r>   -28.9099     0.0000     2.0000 </r>
       <r>   -28.7844     0.0000     2.0000 </r>
       <r>   -28.6588     0.0000     2.0000 </r>
       <r>   -28.5333     0.0000     2.0000 </r>
       <r>   -28.4077     0.0000     2.0000 </r>
       <r>   -28.2822     0.0000     2.0000 </r>
       <r>   -28.1566     0.0000     2.0000 </r>
       <r>   -28.0311     0.0000     2.0000 </r>
       <r>   -27.9055     0.0000     2.0000 </r>
       <r>   -27.7800     0.0000     2.0000 </r>
       <r>   -27.6544     0.0000     2.0000 </r>
       <r>   -27.5289     0.0000     2.0000 </r>
       <r>   -27.4033     0.0000     2.0000 </r>
       <r>   -27.2778     0.0000     2.0000 </r>
       <r>   -27.1523     0.0000     2.0000 </r>
       <r>   -27.0267     0.0000     2.0000 </r>
       <r>   -26.9012     0.0000     2.0000 </r>
       <r>   -26.7756     0.0000     2.0000 </r>
       <r>   -26.6501     0.0000     2.0000 </r>
       <r>   -26.5245     0.0000     2.0000 </r>
       <r>   -26.3990     0.0000     2.0000 </r>
       <r>   -26.2734     0.0000     2.0000 </r>
       <r>   -26.1479     0.0000     2.0000 </r>
       <r>   -26.0223     0.0000     2.0000 </r>
       <r>   -25.8968     0.0000     2.0000 </r>
       <r>   -25.7712     0.0000     2.0000 </r>
       <r>   -25.6457     0.0000     2.0000 </r>
       <r>   -25.5201     0.0000     2.0000 </r>
       <r>   -25.3946     0.0000     2.0000 </r>
       <r>   -25.2690     0.0000     2.0000 </r>
       <r>   -25.1435     0.0000     2.0000 </r>
       <r>   -25.0179     0.0000     2.0000 </r>
       <r>   -24.8924     0.0000     2.0000 </r>
       <r>   -24.7669     0.0000     2.0000 </r>
       <r>   -24.6413     0.0000     2.0000 </r>
       <r>   -24.5158     0.0000     2.0000 </r>
       <r>   -24.3902     0.0000     2.0000 </r>
       <r>   -24.2647     0.0000     2.0000 </r>
       <r>   -24.1391     0.0000     2.0000 </r>
       <r>   -24.0136     0.0000     2.0000 </r>
       <r>   -23.8880     0.0000     2.0000 </r>
       <r>   -23.7625     0.0000     2.0000 </r>
       <r>   -23.6369     0.0000     2.0000 </r>
       <r>   -23.5114     0.0000     2.0000 </r>
       <r>   -23.3858     0.0000     2.0000 </r>
       <r>   -23.2603     0.0000     2.0000 </r>
       <r>   -23.1347     0.0000     2.0000 </r>
       <r>   -23.0092     0.0000     2.0000 </r>
       <r>   -22.8836     0.0000     2.0000 </r>
       <r>   -22.7581     0.0000     2.0000 </r>
       <r>   -22.6325     0.0000     2.0000 </r>
       <r>   -22.5070     0.0000     2.0000 </r>
       <r>   -22.3815     0.0000     2.0000 </r>
       <r>   -22.2559     0.0000     2.0000 </r>
       <r>   -22.1304     0.0000     2.0000 </r>
       <r>   -22.0048     0.0000     2.0000 </r>
       <r>   -21.8793     0.0000     2.0000 </r>
       <r>   -21.7537     0.0000     2.0000 </r>
       <r>   -21.6282     0.0000     2.0000 </r>
       <r>   -21.5026     0.0000     2.0000 </r>
       <r>   -21.3771     0.0000     2.0000 </r>
       <r>   -21.2515     0.0000     2.0000 </r>
       <r>   -21.1260     0.0000     2.0000 </r>
       <r>   -21.0004     0.0000     2.0000 </r>
       <r>   -20.8749     0.0000     2.0000 </r>
       <r>   -20.7493     0.0000     2.0000 </r>
       <r>   -20.6238     0.0000     2.0000 </r>
       <r>   -20.4982     0.0000     2.0000 </r>
       <r>   -20.3727     0.0000     2.0000 </r>
       <r>   -20.2472     0.0000     2.0000 </r>
       <r>   -20.1216     0.0000     2.0000 </r>
       <r>   -19.9961     0.0000     2.0000 </r>
       <r>   -19.8705     0.0000     2.0000 </r>
       <r>   -19.7450     0.0000     2.0000 </r>
       <r>   -19.6194     0.0000     2.0000 </r>
       <r>   -19.4939     0.0000     2.0000 </r>
       <r>   -19.3683     0.0000     2.0000 </r>
       <r>   -19.2428     0.0000     2.0000 </r>
       <r>   -19.1172     0.0000     2.0000 </r>
       <r>   -18.9917     0.0000     2.0000 </r>
       <r>   -18.8661     0.0000     2.0000 </r>
       <r>   -18.7406     0.0000     2.0000 </r>
       <r>   -18.6150     0.0000     2.0000 </r>
       <r>   -18.4895     0.0000     2.0000 </r>
       <r>   -18.3639     0.0000     2.0000 </r>
       <r>   -18.2384     0.0000     2.0000 </r>
       <r>   -18.1128     0.0000     2.0000 </r>
       <r>   -17.9873     0.0000     2.0000 </r>
       <r>   -17.8618     0.0000     2.0000 </r>
       <r>   -17.7362     0.0000     2.0000 </r>
       <r>   -17.6107     0.0000     2.0000 </r>
       <r>   -17.4851     0.0000     2.0000 </r>
       <r>   -17.3596     0.0000     2.0000 </r>
       <r>   -17.2340     0.0000     2.0000 </r>
       <r>   -17.1085     0.0000     2.0000 </r>
       <r>   -16.9829     0.0000     2.0000 </r>
       <r>   -16.8574     0.0000     2.0000 </r>
       <r>   -16.7318     0.0000     2.0000 </r>
       <r>   -16.6063     0.0000     2.0000 </r>
       <r>   -16.4807     0.0000     2.0000 </r>
       <r>   -16.3552     0.0000     2.0000 </r>
       <r>   -16.2296     0.0000     2.0000 </r>
       <r>   -16.1041     0.0000     2.0000 </r>
       <r>   -15.9785     0.0000     2.0000 </r>
       <r>   -15.8530     0.0000     2.0000 </r>
       <r>   -15.7275     0.0000     2.0000 </r>
       <r>   -15.6019     0.0000     2.0000 </r>
       <r>   -15.4764     0.0000     2.0000 </r>
       <r>   -15.3508     0.0000     2.0000 </r>
       <r>   -15.2253     0.0000     2.0000 </r>
       <r>   -15.0997     0.0000     2.0000 </r>
       <r>   -14.9742     0.0000     2.0000 </r>
       <r>   -14.8486     0.0000     2.0000 </r>
       <r>   -14.7231     0.0000     2.0000 </r>
       <r>   -14.5975     0.0000     2.0000 </r>
       <r>   -14.4720     0.0000     2.0000 </r>
       <r>   -14.3464     0.0000     2.0000 </r>
       <r>   -14.2209     0.0000     2.0000 </r>
       <r>   -14.0953     0.0000     2.0000 </r>
       <r>   -13.9698    -0.0000     2.0000 </r>
       <r>   -13.8442    15.9600     4.0037 </r>
       <r>   -13.7187     0.0000     4.0000 </r>
       <r>   -13.5931     0.0000     4.0000 </r>
       <r>   -13.4676     0.0000     4.0000 </r>
       <r>   -13.3421     0.0000     4.0000 </r>
       <r>   -13.2165    -0.0000     4.0000 </r>
       <r>   -13.0910    -0.0000     4.0000 </r>
       <r>   -12.9654    31.8605     8.0000 </r>
       <r>   -12.8399     0.0000     8.0000 </r>
       <r>   -12.7143     0.0000     8.0000 </r>
       <r>   -12.5888     0.0000     8.0000 </r>
       <r>   -12.4632     0.0000     8.0000 </r>
       <r>   -12.3377     0.0000     8.0000 </r>
       <r>   -12.2121     0.0000     8.0000 </r>
       <r>   -12.0866     0.0000     8.0000 </r>
       <r>   -11.9610     0.0000     8.0000 </r>
       <r>   -11.8355     0.0000     8.0000 </r>
       <r>   -11.7099     0.0000     8.0000 </r>
       <r>   -11.5844     0.0000     8.0000 </r>
       <r>   -11.4588     0.0000     8.0000 </r>
       <r>   -11.3333     0.0000     8.0000 </r>
       <r>   -11.2078     0.0000     8.0000 </r>
       <r>   -11.0822     0.0000     8.0000 </r>
       <r>   -10.9567     0.0000     8.0000 </r>
       <r>   -10.8311     0.0000     8.0000 </r>
       <r>   -10.7056     0.0000     8.0000 </r>
       <r>   -10.5800     0.0000     8.0000 </r>
       <r>   -10.4545     0.0000     8.0000 </r>
       <r>   -10.3289     0.0000     8.0000 </r>
       <r>   -10.2034     0.0000     8.0000 </r>
       <r>   -10.0778     0.0000     8.0000 </r>
       <r>    -9.9523     0.0000     8.0000 </r>
       <r>    -9.8267     0.0000     8.0000 </r>
       <r>    -9.7012     0.0000     8.0000 </r>
       <r>    -9.5756     0.0000     8.0000 </r>
       <r>    -9.4501     0.0000     8.0000 </r>
       <r>    -9.3245     0.0000     8.0000 </r>
       <r>    -9.1990     0.0000     8.0000 </r>
       <r>    -9.0734     0.0000     8.0000 </r>
       <r>    -8.9479     0.0000     8.0000 </r>
       <r>    -8.8224     0.0000     8.0000 </r>
       <r>    -8.6968    -0.0000     8.0000 </r>
       <r>    -8.5713    -0.5645     7.9291 </r>
       <r>    -8.4457     0.0000    10.0000 </r>
       <r>    -8.3202     0.0000    10.0000 </r>
       <r>    -8.1946     0.0000    10.0000 </r>
       <r>    -8.0691     0.0000    10.0000 </r>
       <r>    -7.9435     0.0000    10.0000 </r>
       <r>    -7.8180     0.0000    10.0000 </r>
       <r>    -7.6924     0.0000    10.0000 </r>
       <r>    -7.5669     0.0000    10.0000 </r>
       <r>    -7.4413     0.0000    10.0000 </r>
       <r>    -7.3158     0.0000    10.0000 </r>
       <r>    -7.1902     0.0000    10.0000 </r>
       <r>    -7.0647     0.0000    10.0000 </r>
       <r>    -6.9391     0.0000    10.0000 </r>
       <r>    -6.8136     0.0000    10.0000 </r>
       <r>    -6.6881     0.0000    10.0000 </r>
       <r>    -6.5625     0.0000    10.0000 </r>
       <r>    -6.4370     0.0000    10.0000 </r>
       <r>    -6.3114     0.0000    10.0000 </r>
       <r>    -6.1859     0.0000    10.0000 </r>
       <r>    -6.0603     0.0000    10.0000 </r>
       <r>    -5.9348     0.0000    10.0000 </r>
       <r>    -5.8092     0.0000    10.0000 </r>
       <r>    -5.6837     0.0000    10.0000 </r>
       <r>    -5.5581     0.0000    10.0000 </r>
       <r>    -5.4326     0.0000    10.0000 </r>
       <r>    -5.3070     0.0000    10.0000 </r>
       <r>    -5.1815     0.0000    10.0000 </r>
       <r>    -5.0559     0.0000    10.0000 </r>
       <r>    -4.9304     0.0000    10.0000 </r>
       <r>    -4.8048     0.0000    10.0000 </r>
       <r>    -4.6793     0.0000    10.0000 </r>
       <r>    -4.5537     0.0000    10.0000 </r>
       <r>    -4.4282     0.0000    10.0000 </r>
       <r>    -4.3027     0.0000    10.0000 </r>
       <r>    -4.1771     0.0000    10.0000 </r>
       <r>    -4.0516     0.0000    10.0000 </r>
       <r>    -3.9260     0.0000    10.0000 </r>
       <r>    -3.8005     0.0000    10.0000 </r>
       <r>    -3.6749     0.0000    10.0000 </r>
       <r>    -3.5494     0.0000    10.0000 </r>
       <r>    -3.4238     0.0000    10.0000 </r>
       <r>    -3.2983     0.0000    10.0000 </r>
       <r>    -3.1727     0.0000    10.0000 </r>
       <r>    -3.0472     0.0000    10.0000 </r>
       <r>    -2.9216     0.0000    10.0000 </r>
       <r>    -2.7961     0.0000    10.0000 </r>
       <r>    -2.6705     0.0000    10.0000 </r>
       <r>    -2.5450     0.0000    10.0000 </r>
       <r>    -2.4194     0.0000    10.0000 </r>
       <r>    -2.2939     0.0000    10.0000 </r>
       <r>    -2.1684     0.0000    10.0000 </r>
       <r>    -2.0428     0.0000    10.0000 </r>
       <r>    -1.9173     0.0000    10.0000 </r>
       <r>    -1.7917     0.0000    10.0000 </r>
       <r>    -1.6662     0.0000    10.0000 </r>
       <r>    -1.5406     0.0000    10.0000 </r>
       <r>    -1.4151     0.0000    10.0000 </r>
       <r>    -1.2895     0.0000    10.0000 </r>
       <r>    -1.1640     0.0000    10.0000 </r>
       <r>    -1.0384     0.0000    10.0000 </r>
       <r>    -0.9129     0.0000    10.0000 </r>
       <r>    -0.7873     0.0000    10.0000 </r>
       <r>    -0.6618    -0.0000    10.0000 </r>
       <r>    -0.5362    17.3068    12.1728 </r>
       <r>    -0.4107    -0.0000    14.0000 </r>
       <r>    -0.2851    -0.0000    14.0000 </r>
       <r>    -0.1596    15.9303    16.0000 </r>
       <r>    -0.0340     0.0000    16.0000 </r>
       <r>     0.0915     0.0000    16.0000 </r>
       <r>     0.2170     0.0000    16.0000 </r>
       <r>     0.3426     0.0000    16.0000 </r>
       <r>     0.4681     0.0000    16.0000 </r>
       <r>     0.5937     0.0000    16.0000 </r>
       <r>     0.7192     0.0000    16.0000 </r>
       <r>     0.8448     0.0000    16.0000 </r>
       <r>     0.9703    -0.0000    16.0000 </r>
       <r>     1.0959    16.0021    18.0090 </r>
       <r>     1.2214    31.9067    22.0058 </r>
       <r>     1.3470    31.8605    26.0000 </r>
       <r>     1.4725    15.9303    28.0000 </r>
       <r>     1.5981     0.0000    28.0000 </r>
       <r>     1.7236     0.0000    28.0000 </r>
       <r>     1.8492     0.0000    28.0000 </r>
       <r>     1.9747     0.0000    28.0000 </r>
       <r>     2.1003     0.0000    28.0000 </r>
       <r>     2.2258     0.0000    28.0000 </r>
       <r>     2.3513    -0.0000    28.0000 </r>
       <r>     2.4769    -0.0000    28.0000 </r>
       <r>     2.6024    63.7210    36.0000 </r>
       <r>     2.7280    -0.0000    36.0000 </r>
       <r>     2.8535    42.3529    41.3173 </r>
       <r>     2.9791    15.9303    48.0000 </r>
       <r>     3.1046     0.0000    48.0000 </r>
       <r>     3.2302     0.0000    48.0000 </r>
       <r>     3.3557     0.0000    48.0000 </r>
       <r>     3.4813     0.0000    48.0000 </r>
       <r>     3.6068     0.0000    48.0000 </r>
       <r>     3.7324     0.0000    48.0000 </r>
       <r>     3.8579     0.0000    48.0000 </r>
       <r>     3.9835     0.0000    48.0000 </r>
       <r>     4.1090     0.0000    48.0000 </r>
       <r>     4.2346     0.0000    48.0000 </r>
       <r>     4.3601     0.0000    48.0000 </r>
       <r>     4.4857     0.0000    48.0000 </r>
       <r>     4.6112     0.0000    48.0000 </r>
      </set>
     </set>
    </array>
   </total>
  </dos>
 </calculation>
 <structure name="finalpos" >
  <crystal>
   <varray name="basis" >
    <v>      10.00000000       0.00000000       0.00000000 </v>
    <v>       0.00000000      10.00000000       0.00000000 </v>
    <v>       0.00000000       0.00000000      10.00000000 </v>
   </varray>
   <i name="volume">   1000.00000000 </i>
   <varray name="rec_basis" >
    <v>       0.10000000       0.00000000       0.00000000 </v>
    <v>       0.00000000       0.10000000       0.00000000 </v>
    <v>       0.00000000       0.00000000       0.10000000 </v>
   </varray>
  </crystal>
  <varray name="positions" >
   <v>       0.50000000       0.50000000       0.45000000 </v>
   <v>       0.50000000       0.50000000       0.55000000 </v>
  </varray>
 </structure>
</modeling>
