unknown system                          
   1.00000000000000     
     4.000000    0.000000    0.000000
     0.000000    4.000000    0.000000
     0.000000    0.000000    4.000000
   C    O 
     1     1
Direct
  0.350000  0.500000  0.500000
  0.650000  0.500000  0.500000
 
   36   36   36
 0.58649E-01 0.67963E-01 0.82423E-01 0.93133E-01 0.93994E-01 0.87186E-01 0.81169E-01 0.83080E-01 0.92654E-01 0.10298    
 0.10660     0.10096     0.89229E-01 0.77054E-01 0.68889E-01 0.65994E-01 0.66426E-01 0.66480E-01 0.62920E-01 0.54903E-01
 0.44379E-01 0.34854E-01 0.29533E-01 0.29859E-01 0.34684E-01 0.40343E-01 0.42312E-01 0.38377E-01 0.31115E-01 0.26865E-01
 0.30986E-01 0.43076E-01 0.56629E-01 0.64034E-01 0.62928E-01 0.58374E-01 0.58501E-01 0.67830E-01 0.82136E-01 0.93148E-01
 0.95065E-01 0.89671E-01 0.84687E-01 0.86817E-01 0.95945E-01 0.10563     0.10882     0.10318     0.91803E-01 0.80035E-01
 0.71890E-01 0.68387E-01 0.67801E-01 0.66985E-01 0.63155E-01 0.55470E-01 0.45501E-01 0.36313E-01 0.30877E-01 0.30700E-01
 0.34956E-01 0.40365E-01 0.42594E-01 0.39263E-01 0.32526E-01 0.28336E-01 0.31934E-01 0.43103E-01 0.55740E-01 0.62672E-01
 0.61740E-01 0.57768E-01 0.58633E-01 0.67974E-01 0.81850E-01 0.93466E-01 0.97844E-01 0.95996E-01 0.93858E-01 0.96826E-01
 0.10488     0.11277     0.11482     0.10943     0.99451E-01 0.89125E-01 0.81152E-01 0.75969E-01 0.72564E-01 0.69339E-01
 0.64745E-01 0.58012E-01 0.49716E-01 0.41641E-01 0.35984E-01 0.34364E-01 0.36849E-01 0.41294E-01 0.43985E-01 0.42151E-01
 0.36795E-01 0.32747E-01 0.34886E-01 0.43571E-01 0.53865E-01 0.59708E-01 0.59312E-01 0.56801E-01 0.60994E-01 0.70213E-01
 0.83312E-01 0.95185E-01 0.10207     0.10450     0.10638     0.11099     0.11779     0.12306     0.12352     0.11905    
 0.11199     0.10449     0.97078E-01 0.89510E-01 0.82010E-01 0.75239E-01 0.69421E-01 0.64030E-01 0.58370E-01 0.52308E-01
 0.46634E-01 0.42869E-01 0.42338E-01 0.44721E-01 0.47456E-01 0.47410E-01 0.43936E-01 0.40121E-01 0.40254E-01 0.45633E-01
 0.53080E-01 0.57925E-01 0.58530E-01 0.57909E-01 0.68453E-01 0.77246E-01 0.88985E-01 0.10037     0.10915     0.11576    
 0.12210     0.12887     0.13443     0.13658     0.13509     0.13199     0.12903     0.12553     0.11919     0.10900    
 0.96736E-01 0.85678E-01 0.78068E-01 0.73848E-01 0.71167E-01 0.67772E-01 0.62506E-01 0.56318E-01 0.51828E-01 0.51073E-01
 0.53229E-01 0.54984E-01 0.53764E-01 0.50497E-01 0.48721E-01 0.50845E-01 0.55731E-01 0.60157E-01 0.62405E-01 0.64078E-01
 0.82453E-01 0.90640E-01 0.10053     0.11100     0.12152     0.13230     0.14311     0.15204     0.15631     0.15507    
 0.15113     0.14882     0.14963     0.15017     0.14520     0.13268     0.11577     0.10019     0.90113E-01 0.86140E-01
 0.85699E-01 0.84746E-01 0.80072E-01 0.71638E-01 0.63089E-01 0.58947E-01 0.60436E-01 0.64223E-01 0.65746E-01 0.63655E-01
 0.60615E-01 0.60049E-01 0.62839E-01 0.67333E-01 0.71849E-01 0.76461E-01 0.10072     0.10871     0.11712     0.12716    
 0.13993     0.15517     0.17044     0.18149     0.18464     0.18015     0.17315     0.17001     0.17245     0.17544    
 0.17149     0.15745     0.13703     0.11748     0.10444     0.99260E-01 0.99224E-01 0.99254E-01 0.94630E-01 0.84391E-01
 0.72811E-01 0.66347E-01 0.67917E-01 0.74185E-01 0.78883E-01 0.78580E-01 0.74971E-01 0.72201E-01 0.73030E-01 0.77584E-01
 0.84554E-01 0.92571E-01 0.11840     0.12728     0.13566     0.14647     0.16204     0.18176     0.20151     0.21516    
 0.21820     0.21143     0.20141     0.19581     0.19697     0.19963     0.19556     0.18083     0.15868     0.13648    
 0.12042     0.11257     0.11062     0.10940     0.10368     0.92184E-01 0.79397E-01 0.72523E-01 0.75184E-01 0.84013E-01
 0.91694E-01 0.93245E-01 0.89364E-01 0.84599E-01 0.83391E-01 0.87652E-01 0.96604E-01 0.10776     0.13259     0.14351    
 0.15360     0.16631     0.18461     0.20811     0.23203     0.24908     0.25388     0.24712     0.23558     0.22723    
 0.22492     0.22434     0.21826     0.20279     0.18016     0.15653     0.13768     0.12615     0.12048     0.11614    
 0.10851     0.96503E-01 0.84348E-01 0.78646E-01 0.82683E-01 0.93154E-01 0.10263     0.10538     0.10128     0.94968E-01
 0.92104E-01 0.95945E-01 0.10612     0.11954     0.14554     0.15904     0.17176     0.18682     0.20728     0.23327    
 0.26035     0.28110     0.28970     0.28608     0.27594     0.26620     0.25969     0.25372     0.24326     0.22550    
 0.20189     0.17691     0.15531     0.13976     0.12968     0.12183     0.11260     0.10121     0.90926E-01 0.86818E-01
 0.91315E-01 0.10152     0.11088     0.11391     0.11002     0.10353     0.10041     0.10442     0.11545     0.13037    
 0.16237     0.17831     0.19363     0.21092     0.23303     0.26031     0.28909     0.31295     0.32646     0.32859    
 0.32273     0.31347     0.30307     0.29051     0.27348     0.25094     0.22428     0.19679     0.17209     0.15264    
 0.13861     0.12806     0.11843     0.10881     0.10096     0.98006E-01 0.10150     0.10939     0.11685     0.11959    
 0.11700     0.11255     0.11135     0.11681     0.12902     0.14530     0.18535     0.20337     0.22095     0.24044    
 0.26418     0.29229     0.32177     0.34775     0.36591     0.37434     0.37369     0.36571     0.35175     0.33231    
 0.30762     0.27855     0.24702     0.21576     0.18757     0.16446     0.14696     0.13416     0.12448     0.11686    
 0.11159     0.10975     0.11184     0.11664     0.12150     0.12403     0.12393     0.12346     0.12605     0.13429    
 0.14844     0.16643     0.21082     0.23073     0.25045     0.27238     0.29839     0.32799     0.35846     0.38609    
 0.40756     0.42040     0.42308     0.41516     0.39743     0.37166     0.34007     0.30496     0.26867     0.23362    
 0.20191     0.17484     0.15280     0.13571     0.12353     0.11627     0.11362     0.11460     0.11775     0.12159    
 0.12515     0.12810     0.13083     0.13464     0.14147     0.15309     0.16982     0.18997     0.23232     0.25404    
 0.27578     0.30045     0.32976     0.36258     0.39566     0.42536     0.44853     0.46236     0.46442     0.45367    
 0.43129     0.40031     0.36414     0.32552     0.28653     0.24889     0.21367     0.18097     0.15058     0.12364    
 0.10325     0.92805E-01 0.93141E-01 0.10119     0.11176     0.12076     0.12704     0.13173     0.13654     0.14298    
 0.15265     0.16710     0.18661     0.20933     0.24637     0.26978     0.29314     0.32052     0.35413     0.39220    
 0.43006     0.46275     0.48632     0.49771     0.49488     0.47786     0.44949     0.41420     0.37580     0.33643    
 0.29700     0.25787     0.21838     0.17668     0.13184     0.87194E-01 0.51251E-01 0.33563E-01 0.38024E-01 0.59508E-01
 0.87028E-01 0.11063     0.12618     0.13507     0.14096     0.14737     0.15735     0.17319     0.19522     0.22091    
 0.25457     0.27954     0.30404     0.33380     0.37213     0.41670     0.46084     0.49728     0.52050     0.52717    
 0.51642     0.49055     0.45484     0.41526     0.37560     0.33667     0.29763     0.25686     0.21130     0.15671    
 0.91522E-01 0.22407E-01 -.34824E-01 -.62431E-01 -.52023E-01 -.10733E-01 0.43076E-01 0.90846E-01 0.12276     0.13908    
 0.14580     0.15003     0.15790     0.17355     0.19758     0.22639     0.26042     0.28683     0.31223     0.34391    
 0.38644     0.43721     0.48764     0.52787     0.55047     0.55182     0.53244     0.49713     0.45366     0.40943    
 0.36810     0.32916     0.28991     0.24655     0.19345     0.12405     0.36548E-01 -.58690E-01 -.13819     -.17569    
 -.15803     -.94182E-01 -.10115E-01 0.66245E-01 0.11830     0.14429     0.15232     0.15361     0.15821     0.17266    
 0.19805     0.22965     0.26507     0.29265     0.31878     0.35176     0.39713     0.45226     0.50731     0.55038    
 0.57247     0.56967     0.54361     0.50099     0.45134     0.40306     0.35978     0.32016     0.28006     0.23392    
 0.17416     0.92594E-01 -.12592E-01 -.12808     -.22452     -.26918     -.24520     -.16296     -.54267E-01 0.45656E-01
 0.11474     0.14930     0.15884     0.15782     0.15960     0.17280     0.19892     0.23243     0.26701     0.29504    
 0.32148     0.35494     0.40130     0.45799     0.51473     0.55886     0.58076     0.57638     0.54781     0.50242    
 0.45039     0.40045     0.35627     0.31622     0.27564     0.22827     0.16581     0.79505E-01 -.32436E-01 -.15556    
 -.25835     -.30559     -.27908     -.18969     -.71469E-01 0.37619E-01 0.11341     0.15143     0.16167     0.15980    
 0.16047     0.17315     0.19951     0.23369     0.26507     0.29265     0.31878     0.35176     0.39713     0.45226    
 0.50731     0.55038     0.57247     0.56967     0.54361     0.50099     0.45134     0.40306     0.35978     0.32016    
 0.28006     0.23392     0.17416     0.92594E-01 -.12592E-01 -.12808     -.22452     -.26918     -.24520     -.16296    
 -.54267E-01 0.45656E-01 0.11474     0.14930     0.15884     0.15782     0.15960     0.17280     0.19892     0.23243    
 0.26042     0.28683     0.31223     0.34391     0.38644     0.43721     0.48764     0.52787     0.55047     0.55182    
 0.53244     0.49713     0.45366     0.40943     0.36810     0.32916     0.28991     0.24655     0.19345     0.12405    
 0.36548E-01 -.58690E-01 -.13819     -.17569     -.15803     -.94182E-01 -.10115E-01 0.66245E-01 0.11830     0.14429    
 0.15232     0.15361     0.15821     0.17266     0.19805     0.22965     0.25457     0.27954     0.30404     0.33380    
 0.37213     0.41670     0.46084     0.49728     0.52050     0.52717     0.51642     0.49055     0.45484     0.41526    
 0.37560     0.33667     0.29763     0.25686     0.21130     0.15671     0.91522E-01 0.22407E-01 -.34824E-01 -.62431E-01
 -.52023E-01 -.10733E-01 0.43076E-01 0.90846E-01 0.12276     0.13908     0.14580     0.15003     0.15790     0.17355    
 0.19758     0.22639     0.24637     0.26978     0.29314     0.32052     0.35413     0.39220     0.43006     0.46275    
 0.48632     0.49771     0.49488     0.47786     0.44949     0.41420     0.37580     0.33643     0.29700     0.25787    
 0.21838     0.17668     0.13184     0.87194E-01 0.51251E-01 0.33563E-01 0.38024E-01 0.59508E-01 0.87028E-01 0.11063    
 0.12618     0.13507     0.14096     0.14737     0.15735     0.17319     0.19522     0.22091     0.23232     0.25404    
 0.27578     0.30045     0.32976     0.36258     0.39566     0.42536     0.44853     0.46236     0.46442     0.45367    
 0.43129     0.40031     0.36414     0.32552     0.28653     0.24889     0.21367     0.18097     0.15058     0.12364    
 0.10325     0.92805E-01 0.93141E-01 0.10119     0.11176     0.12076     0.12704     0.13173     0.13654     0.14298    
 0.15265     0.16710     0.18661     0.20933     0.21082     0.23073     0.25045     0.27238     0.29839     0.32799    
 0.35846     0.38609     0.40756     0.42040     0.42308     0.41516     0.39743     0.37166     0.34007     0.30496    
 0.26867     0.23362     0.20191     0.17484     0.15280     0.13571     0.12353     0.11627     0.11362     0.11460    
 0.11775     0.12159     0.12515     0.12810     0.13083     0.13464     0.14147     0.15309     0.16982     0.18997    
 0.18535     0.20337     0.22095     0.24044     0.26418     0.29229     0.32177     0.34775     0.36591     0.37434    
 0.37369     0.36571     0.35175     0.33231     0.30762     0.27855     0.24702     0.21576     0.18757     0.16446    
 0.14696     0.13416     0.12448     0.11686     0.11159     0.10975     0.11184     0.11664     0.12150     0.12403    
 0.12393     0.12346     0.12605     0.13429     0.14844     0.16643     0.16237     0.17831     0.19363     0.21092    
 0.23303     0.26031     0.28909     0.31295     0.32646     0.32859     0.32273     0.31347     0.30307     0.29051    
 0.27348     0.25094     0.22428     0.19679     0.17209     0.15264     0.13861     0.12806     0.11843     0.10881    
 0.10096     0.98006E-01 0.10150     0.10939     0.11685     0.11959     0.11700     0.11255     0.11135     0.11681    
 0.12902     0.14530     0.14554     0.15904     0.17176     0.18682     0.20728     0.23327     0.26035     0.28110    
 0.28970     0.28608     0.27594     0.26620     0.25969     0.25372     0.24326     0.22550     0.20189     0.17691    
 0.15531     0.13976     0.12968     0.12183     0.11260     0.10121     0.90926E-01 0.86818E-01 0.91315E-01 0.10152    
 0.11088     0.11391     0.11002     0.10353     0.10041     0.10442     0.11545     0.13037     0.13259     0.14351    
 0.15360     0.16631     0.18461     0.20811     0.23203     0.24908     0.25388     0.24712     0.23558     0.22723    
 0.22492     0.22434     0.21826     0.20279     0.18016     0.15653     0.13768     0.12615     0.12048     0.11614    
 0.10851     0.96503E-01 0.84348E-01 0.78646E-01 0.82683E-01 0.93154E-01 0.10263     0.10538     0.10128     0.94968E-01
 0.92104E-01 0.95945E-01 0.10612     0.11954     0.11840     0.12728     0.13566     0.14647     0.16204     0.18176    
 0.20151     0.21516     0.21820     0.21143     0.20141     0.19581     0.19697     0.19963     0.19556     0.18083    
 0.15868     0.13648     0.12042     0.11257     0.11062     0.10940     0.10368     0.92184E-01 0.79397E-01 0.72523E-01
 0.75184E-01 0.84013E-01 0.91694E-01 0.93245E-01 0.89364E-01 0.84599E-01 0.83391E-01 0.87652E-01 0.96604E-01 0.10776    
 0.10072     0.10871     0.11712     0.12716     0.13993     0.15517     0.17044     0.18149     0.18464     0.18015    
 0.17315     0.17001     0.17245     0.17544     0.17149     0.15745     0.13703     0.11748     0.10444     0.99260E-01
 0.99224E-01 0.99254E-01 0.94630E-01 0.84391E-01 0.72811E-01 0.66347E-01 0.67917E-01 0.74185E-01 0.78883E-01 0.78580E-01
 0.74971E-01 0.72201E-01 0.73030E-01 0.77584E-01 0.84554E-01 0.92571E-01 0.82453E-01 0.90640E-01 0.10053     0.11100    
 0.12152     0.13230     0.14311     0.15204     0.15631     0.15507     0.15113     0.14882     0.14963     0.15017    
 0.14520     0.13268     0.11577     0.10019     0.90113E-01 0.86140E-01 0.85699E-01 0.84746E-01 0.80072E-01 0.71638E-01
 0.63089E-01 0.58947E-01 0.60436E-01 0.64223E-01 0.65746E-01 0.63655E-01 0.60615E-01 0.60049E-01 0.62839E-01 0.67333E-01
 0.71849E-01 0.76461E-01 0.68453E-01 0.77246E-01 0.88985E-01 0.10037     0.10915     0.11576     0.12210     0.12887    
 0.13443     0.13658     0.13509     0.13199     0.12903     0.12553     0.11919     0.10900     0.96736E-01 0.85678E-01
 0.78068E-01 0.73848E-01 0.71167E-01 0.67772E-01 0.62506E-01 0.56318E-01 0.51828E-01 0.51073E-01 0.53229E-01 0.54984E-01
 0.53764E-01 0.50497E-01 0.48721E-01 0.50845E-01 0.55731E-01 0.60157E-01 0.62405E-01 0.64078E-01 0.60994E-01 0.70213E-01
 0.83312E-01 0.95185E-01 0.10207     0.10450     0.10638     0.11099     0.11779     0.12306     0.12352     0.11905    
 0.11199     0.10449     0.97078E-01 0.89510E-01 0.82010E-01 0.75239E-01 0.69421E-01 0.64030E-01 0.58370E-01 0.52308E-01
 0.46634E-01 0.42869E-01 0.42338E-01 0.44721E-01 0.47456E-01 0.47410E-01 0.43936E-01 0.40121E-01 0.40254E-01 0.45633E-01
 0.53080E-01 0.57925E-01 0.58530E-01 0.57909E-01 0.58633E-01 0.67974E-01 0.81850E-01 0.93466E-01 0.97844E-01 0.95996E-01
 0.93858E-01 0.96826E-01 0.10488     0.11277     0.11482     0.10943     0.99451E-01 0.89125E-01 0.81152E-01 0.75969E-01
 0.72564E-01 0.69339E-01 0.64745E-01 0.58012E-01 0.49716E-01 0.41641E-01 0.35984E-01 0.34364E-01 0.36849E-01 0.41294E-01
 0.43985E-01 0.42151E-01 0.36795E-01 0.32747E-01 0.34886E-01 0.43571E-01 0.53865E-01 0.59708E-01 0.59312E-01 0.56801E-01
 0.58501E-01 0.67830E-01 0.82136E-01 0.93148E-01 0.95065E-01 0.89671E-01 0.84687E-01 0.86817E-01 0.95945E-01 0.10563    
 0.10882     0.10318     0.91803E-01 0.80035E-01 0.71890E-01 0.68387E-01 0.67801E-01 0.66985E-01 0.63155E-01 0.55470E-01
 0.45501E-01 0.36313E-01 0.30877E-01 0.30700E-01 0.34956E-01 0.40365E-01 0.42594E-01 0.39263E-01 0.32526E-01 0.28336E-01
 0.31934E-01 0.43103E-01 0.55740E-01 0.62672E-01 0.61740E-01 0.57768E-01 0.58501E-01 0.67830E-01 0.82136E-01 0.93148E-01
 0.95065E-01 0.89671E-01 0.84687E-01 0.86817E-01 0.95945E-01 0.10563     0.10882     0.10318     0.91803E-01 0.80035E-01
 0.71890E-01 0.68387E-01 0.67801E-01 0.66985E-01 0.63155E-01 0.55470E-01 0.45501E-01 0.36313E-01 0.30877E-01 0.30700E-01
 0.34956E-01 0.40365E-01 0.42594E-01 0.39263E-01 0.32526E-01 0.28336E-01 0.31934E-01 0.43103E-01 0.55740E-01 0.62672E-01
 0.61740E-01 0.57768E-01 0.58482E-01 0.67847E-01 0.82053E-01 0.93345E-01 0.96196E-01 0.92084E-01 0.88089E-01 0.90482E-01
 0.99217E-01 0.10827     0.11104     0.10541     0.94423E-01 0.83101E-01 0.75036E-01 0.71040E-01 0.69605E-01 0.68071E-01
 0.64025E-01 0.56611E-01 0.47071E-01 0.38095E-01 0.32465E-01 0.31763E-01 0.35457E-01 0.40625E-01 0.43116E-01 0.40385E-01
 0.34170E-01 0.30032E-01 0.33103E-01 0.43375E-01 0.55148E-01 0.61640E-01 0.60842E-01 0.57356E-01 0.59008E-01 0.68416E-01
 0.82293E-01 0.94140E-01 0.99187E-01 0.98315E-01 0.97036E-01 0.10033     0.10810     0.11541     0.11706     0.11174    
 0.10225     0.92485E-01 0.84775E-01 0.79406E-01 0.75534E-01 0.71883E-01 0.67130E-01 0.60480E-01 0.52301E-01 0.44154E-01
 0.38138E-01 0.35949E-01 0.37887E-01 0.42096E-01 0.45016E-01 0.43748E-01 0.38911E-01 0.34949E-01 0.36626E-01 0.44522E-01
 0.54084E-01 0.59546E-01 0.59180E-01 0.56937E-01 0.62018E-01 0.71292E-01 0.84441E-01 0.96486E-01 0.10380     0.10690    
 0.10943     0.11435     0.12099     0.12583     0.12601     0.12169     0.11519     0.10837     0.10146     0.94062E-01
 0.86442E-01 0.79406E-01 0.73321E-01 0.67714E-01 0.61832E-01 0.55448E-01 0.49305E-01 0.44974E-01 0.43929E-01 0.46044E-01
 0.48889E-01 0.49280E-01 0.46301E-01 0.42704E-01 0.42615E-01 0.47459E-01 0.54354E-01 0.58863E-01 0.59388E-01 0.58838E-01
 0.70285E-01 0.79095E-01 0.90865E-01 0.10235     0.11138     0.11839     0.12515     0.13218     0.13778     0.13983    
 0.13834     0.13547     0.13298     0.13009     0.12433     0.11451     0.10228     0.90893E-01 0.82760E-01 0.78007E-01
 0.74865E-01 0.71048E-01 0.65348E-01 0.58721E-01 0.53828E-01 0.52772E-01 0.54818E-01 0.56724E-01 0.55861E-01 0.52954E-01
 0.51309E-01 0.53281E-01 0.57877E-01 0.62068E-01 0.64217E-01 0.65887E-01 0.85114E-01 0.93324E-01 0.10323     0.11371    
 0.12424     0.13512     0.14617     0.15544     0.16014     0.15939     0.15588     0.15388     0.15487     0.15560    
 0.15092     0.13867     0.12173     0.10567     0.94829E-01 0.90092E-01 0.89066E-01 0.87712E-01 0.82772E-01 0.74164E-01
 0.65438E-01 0.61003E-01 0.62097E-01 0.65589E-01 0.67135E-01 0.65375E-01 0.62741E-01 0.62446E-01 0.65344E-01 0.69883E-01
 0.74444E-01 0.79095E-01 0.10416     0.11226     0.12071     0.13063     0.14312     0.15814     0.17353     0.18520    
 0.18942     0.18619     0.18021     0.17749     0.17973     0.18225     0.17797     0.16378     0.14311     0.12296    
 0.10903     0.10296     0.10227     0.10198     0.97333E-01 0.87262E-01 0.75771E-01 0.69008E-01 0.69838E-01 0.75258E-01
 0.79459E-01 0.79220E-01 0.76101E-01 0.73981E-01 0.75434E-01 0.80484E-01 0.87767E-01 0.95930E-01 0.12259     0.13168    
 0.14017     0.15079     0.16586     0.18513     0.20497     0.21959     0.22443     0.21980     0.21147     0.20651    
 0.20718     0.20873     0.20362     0.18817     0.16546     0.14254     0.12554     0.11676     0.11417     0.11277    
 0.10735     0.96363E-01 0.83824E-01 0.76484E-01 0.77931E-01 0.85263E-01 0.91812E-01 0.93003E-01 0.89542E-01 0.85718E-01
 0.85615E-01 0.90811E-01 0.10034     0.11177     0.13747     0.14871     0.15900     0.17162     0.18950     0.21257    
 0.23662     0.25491     0.26216     0.25836     0.24921     0.24179     0.23883     0.23670     0.22900     0.21230    
 0.18878     0.16432     0.14457     0.13222     0.12605     0.12184     0.11491     0.10372     0.91801E-01 0.85246E-01
 0.87408E-01 0.95599E-01 0.10320     0.10506     0.10119     0.95945E-01 0.94442E-01 0.99422E-01 0.11030     0.12411    
 0.15086     0.16486     0.17806     0.19340     0.21388     0.23975     0.26711     0.28930     0.30080     0.30081    
 0.29362     0.28501     0.27771     0.26985     0.25739     0.23807     0.21340     0.18767     0.16542     0.14933    
 0.13910     0.13177     0.12365     0.11331     0.10316     0.97728E-01 0.99617E-01 0.10667     0.11330     0.11475    
 0.11070     0.10512     0.10325     0.10827     0.11990     0.13524     0.16764     0.18444     0.20079     0.21912    
 0.24198     0.26969     0.29908     0.32462     0.34133     0.34745     0.34480     0.33669     0.32528     0.31047    
 0.29111     0.26687     0.23931     0.21145     0.18657     0.16699     0.15315     0.14347     0.13527     0.12687    
 0.11905     0.11439     0.11468     0.11866     0.12256     0.12295     0.11953     0.11543     0.11497     0.12097    
 0.13344     0.15001     0.19000     0.20941     0.22893     0.25048     0.27592     0.30521     0.33586     0.36388    
 0.38540     0.39787     0.40043     0.39354     0.37837     0.35632     0.32894     0.29805     0.26587     0.23471    
 0.20680     0.18392     0.16703     0.15567     0.14803     0.14199     0.13660     0.13245     0.13055     0.13073    
 0.13140     0.13090     0.12918     0.12816     0.13064     0.13868     0.15251     0.17046     0.21458     0.23647    
 0.25917     0.28432     0.31307     0.34476     0.37711     0.40721     0.43216     0.44904     0.45510     0.44862    
 0.42987     0.40126     0.36641     0.32900     0.29188     0.25700     0.22579     0.19957     0.17958     0.16623    
 0.15847     0.15405     0.15070     0.14726     0.14390     0.14123     0.13958     0.13890     0.13930     0.14158    
 0.14724     0.15773     0.17342     0.19308     0.23551     0.25971     0.28531     0.31421     0.34724     0.38304    
 0.41871     0.45131     0.47827     0.49672     0.50333     0.49553     0.47324     0.43948     0.39913     0.35689    
 0.31590     0.27776     0.24334     0.21365     0.19004     0.17359     0.16413     0.15981     0.15775     0.15553    
 0.15236     0.14904     0.14687     0.14662     0.14838     0.15243     0.15989     0.17226     0.19003     0.21186    
 0.24986     0.27602     0.30375     0.33600     0.37403     0.41569     0.45665     0.49272     0.52093     0.53875    
 0.54340     0.53272     0.50694     0.46947     0.42562     0.38030     0.33657     0.29574     0.25833     0.22513    
 0.19755     0.17721     0.16485     0.15936     0.15792     0.15747     0.15638     0.15492     0.15415     0.15458    
 0.15616     0.15945     0.16641     0.17942     0.19920     0.22374     0.25938     0.28711     0.31609     0.35093    
 0.39392     0.44229     0.48975     0.53012     0.55953     0.57585     0.57742     0.56315     0.53400     0.49362    
 0.44718     0.39933     0.35298     0.30935     0.26893     0.23241     0.20123     0.17735     0.16217     0.15529    
 0.15431     0.15612     0.15857     0.16095     0.16305     0.16431     0.16438     0.16473     0.16909     0.18148    
 0.20299     0.23056     0.26713     0.29618     0.32586     0.36247     0.40953     0.46397     0.51770     0.56245    
 0.59323     0.60819     0.60683     0.58924     0.55705     0.51398     0.46492     0.41422     0.36471     0.31782    
 0.27430     0.23497     0.20124     0.17509     0.15817     0.15054     0.15032     0.15467     0.16117     0.16811    
 0.17372     0.17599     0.17415     0.17075     0.17161     0.18264     0.20543     0.23579     0.27348     0.30350    
 0.33367     0.37133     0.42098     0.47953     0.53776     0.58584     0.61781     0.63195     0.62859     0.60870    
 0.57428     0.52901     0.47756     0.42418     0.37172     0.32188     0.27579     0.23451     0.19943     0.17232    
 0.15479     0.14710     0.14779     0.15428     0.16404     0.17467     0.18320     0.18644     0.18319     0.17678    
 0.17474     0.18450     0.20804     0.24032     0.27608     0.30649     0.33685     0.37488     0.42540     0.48539    
 0.54525     0.59458     0.62703     0.64090     0.63684     0.61613     0.58088     0.53471     0.48227     0.42774    
 0.37405     0.32299     0.27588     0.23389     0.19841     0.17110     0.15347     0.14588     0.14699     0.15434    
 0.16535     0.17740     0.18708     0.19074     0.18698     0.17943     0.17629     0.18554     0.20931     0.24227    
 0.27348     0.30350     0.33367     0.37133     0.42098     0.47953     0.53776     0.58584     0.61781     0.63195    
 0.62859     0.60870     0.57428     0.52901     0.47756     0.42418     0.37172     0.32188     0.27579     0.23451    
 0.19943     0.17232     0.15479     0.14710     0.14779     0.15428     0.16404     0.17467     0.18320     0.18644    
 0.18319     0.17678     0.17474     0.18450     0.20804     0.24032     0.26713     0.29618     0.32586     0.36247    
 0.40953     0.46397     0.51770     0.56245     0.59323     0.60819     0.60683     0.58924     0.55705     0.51398    
 0.46492     0.41422     0.36471     0.31782     0.27430     0.23497     0.20124     0.17509     0.15817     0.15054    
 0.15032     0.15467     0.16117     0.16811     0.17372     0.17599     0.17415     0.17075     0.17161     0.18264    
 0.20543     0.23579     0.25938     0.28711     0.31609     0.35093     0.39392     0.44229     0.48975     0.53012    
 0.55953     0.57585     0.57742     0.56315     0.53400     0.49362     0.44718     0.39933     0.35298     0.30935    
 0.26893     0.23241     0.20123     0.17735     0.16217     0.15529     0.15431     0.15612     0.15857     0.16095    
 0.16305     0.16431     0.16438     0.16473     0.16909     0.18148     0.20299     0.23056     0.24986     0.27602    
 0.30375     0.33600     0.37403     0.41569     0.45665     0.49272     0.52093     0.53875     0.54340     0.53272    
 0.50694     0.46947     0.42562     0.38030     0.33657     0.29574     0.25833     0.22513     0.19755     0.17721    
 0.16485     0.15936     0.15792     0.15747     0.15638     0.15492     0.15415     0.15458     0.15616     0.15945    
 0.16641     0.17942     0.19920     0.22374     0.23551     0.25971     0.28531     0.31421     0.34724     0.38304    
 0.41871     0.45131     0.47827     0.49672     0.50333     0.49553     0.47324     0.43948     0.39913     0.35689    
 0.31590     0.27776     0.24334     0.21365     0.19004     0.17359     0.16413     0.15981     0.15775     0.15553    
 0.15236     0.14904     0.14687     0.14662     0.14838     0.15243     0.15989     0.17226     0.19003     0.21186    
 0.21458     0.23647     0.25917     0.28432     0.31307     0.34476     0.37711     0.40721     0.43216     0.44904    
 0.45510     0.44862     0.42987     0.40126     0.36641     0.32900     0.29188     0.25700     0.22579     0.19957    
 0.17958     0.16623     0.15847     0.15405     0.15070     0.14726     0.14390     0.14123     0.13958     0.13890    
 0.13930     0.14158     0.14724     0.15773     0.17342     0.19308     0.19000     0.20941     0.22893     0.25048    
 0.27592     0.30521     0.33586     0.36388     0.38540     0.39787     0.40043     0.39354     0.37837     0.35632    
 0.32894     0.29805     0.26587     0.23471     0.20680     0.18392     0.16703     0.15567     0.14803     0.14199    
 0.13660     0.13245     0.13055     0.13073     0.13140     0.13090     0.12918     0.12816     0.13064     0.13868    
 0.15251     0.17046     0.16764     0.18444     0.20079     0.21912     0.24198     0.26969     0.29908     0.32462    
 0.34133     0.34745     0.34480     0.33669     0.32528     0.31047     0.29111     0.26687     0.23931     0.21145    
 0.18657     0.16699     0.15315     0.14347     0.13527     0.12687     0.11905     0.11439     0.11468     0.11866    
 0.12256     0.12295     0.11953     0.11543     0.11497     0.12097     0.13344     0.15001     0.15086     0.16486    
 0.17806     0.19340     0.21388     0.23975     0.26711     0.28930     0.30080     0.30081     0.29362     0.28501    
 0.27771     0.26985     0.25739     0.23807     0.21340     0.18767     0.16542     0.14933     0.13910     0.13177    
 0.12365     0.11331     0.10316     0.97728E-01 0.99617E-01 0.10667     0.11330     0.11475     0.11070     0.10512    
 0.10325     0.10827     0.11990     0.13524     0.13747     0.14871     0.15900     0.17162     0.18950     0.21257    
 0.23662     0.25491     0.26216     0.25836     0.24921     0.24179     0.23883     0.23670     0.22900     0.21230    
 0.18878     0.16432     0.14457     0.13222     0.12605     0.12184     0.11491     0.10372     0.91801E-01 0.85246E-01
 0.87408E-01 0.95599E-01 0.10320     0.10506     0.10119     0.95945E-01 0.94442E-01 0.99422E-01 0.11030     0.12411    
 0.12259     0.13168     0.14017     0.15079     0.16586     0.18513     0.20497     0.21959     0.22443     0.21980    
 0.21147     0.20651     0.20718     0.20873     0.20362     0.18817     0.16546     0.14254     0.12554     0.11676    
 0.11417     0.11277     0.10735     0.96363E-01 0.83824E-01 0.76484E-01 0.77931E-01 0.85263E-01 0.91812E-01 0.93003E-01
 0.89542E-01 0.85718E-01 0.85615E-01 0.90811E-01 0.10034     0.11177     0.10416     0.11226     0.12071     0.13063    
 0.14312     0.15814     0.17353     0.18520     0.18942     0.18619     0.18021     0.17749     0.17973     0.18225    
 0.17797     0.16378     0.14311     0.12296     0.10903     0.10296     0.10227     0.10198     0.97333E-01 0.87262E-01
 0.75771E-01 0.69008E-01 0.69838E-01 0.75258E-01 0.79459E-01 0.79220E-01 0.76101E-01 0.73981E-01 0.75434E-01 0.80484E-01
 0.87767E-01 0.95930E-01 0.85114E-01 0.93324E-01 0.10323     0.11371     0.12424     0.13512     0.14617     0.15544    
 0.16014     0.15939     0.15588     0.15388     0.15487     0.15560     0.15092     0.13867     0.12173     0.10567    
 0.94829E-01 0.90092E-01 0.89066E-01 0.87712E-01 0.82772E-01 0.74164E-01 0.65438E-01 0.61003E-01 0.62097E-01 0.65589E-01
 0.67135E-01 0.65375E-01 0.62741E-01 0.62446E-01 0.65344E-01 0.69883E-01 0.74444E-01 0.79095E-01 0.70285E-01 0.79095E-01