unknown system                          
   1.00000000000000     
     4.000000    0.000000    0.000000
     0.000000    4.000000    0.000000
     0.000000    0.000000    4.000000
   C    O 
     1     1
Direct
  0.350000  0.500000  0.500000
  0.650000  0.500000  0.500000
 
   36   36   36
 0.58648710199E-01 0.67962775517E-01 0.82423354129E-01 0.93133334206E-01 0.93994146446E-01
 0.87185886217E-01 0.81169370155E-01 0.83079766839E-01 0.92654148977E-01 0.10298225291E+00
 0.10659721235E+00 0.10096307412E+00 0.89229051884E-01 0.77053868818E-01 0.68889241593E-01
 0.65994448035E-01 0.66426352888E-01 0.66479559543E-01 0.62920165433E-01 0.54902795147E-01
 0.44378823949E-01 0.34853649571E-01 0.29533065795E-01 0.29858536137E-01 0.34684080452E-01
 0.40342914928E-01 0.42312316279E-01 0.38377069100E-01 0.31114880538E-01 0.26864550908E-01
 0.30986404500E-01 0.43076429001E-01 0.56629038766E-01 0.64033775692E-01 0.62928103864E-01
 0.58373781516E-01 0.58501380428E-01 0.67830051112E-01 0.82136147720E-01 0.93147718318E-01
 0.95064697510E-01 0.89670990843E-01 0.84686983095E-01 0.86816668489E-01 0.95944974383E-01
 0.10563081780E+00 0.10882355408E+00 0.10318258736E+00 0.91803086313E-01 0.80034718300E-01
 0.71890322997E-01 0.68386539428E-01 0.67800593355E-01 0.66985366090E-01 0.63155495543E-01
 0.55469544553E-01 0.45501029542E-01 0.36313398719E-01 0.30876803004E-01 0.30700026057E-01
 0.34955878778E-01 0.40364571666E-01 0.42594470193E-01 0.39262963911E-01 0.32525738663E-01
 0.28335870625E-01 0.31934088663E-01 0.43103490405E-01 0.55740318551E-01 0.62671912369E-01
 0.61739832230E-01 0.57768159004E-01 0.58632519862E-01 0.67974329193E-01 0.81850318094E-01
 0.93465723402E-01 0.97844230964E-01 0.95995565061E-01 0.93857692259E-01 0.96826344859E-01
 0.10487616355E+00 0.11276814621E+00 0.11482121813E+00 0.10943174666E+00 0.99450650051E-01
 0.89125246450E-01 0.81152098505E-01 0.75969186428E-01 0.72563941179E-01 0.69338528867E-01
 0.64744519342E-01 0.58011641262E-01 0.49716045570E-01 0.41641248553E-01 0.35983949879E-01
 0.34364227566E-01 0.36848874566E-01 0.41294400712E-01 0.43984753585E-01 0.42150878791E-01
 0.36794595935E-01 0.32746871948E-01 0.34885647947E-01 0.43571049593E-01 0.53865229571E-01
 0.59707914253E-01 0.59312053509E-01 0.56801452685E-01 0.60993869167E-01 0.70213068999E-01
 0.83312461543E-01 0.95184589047E-01 0.10206961674E+00 0.10450154378E+00 0.10637869974E+00
 0.11099001217E+00 0.11779349765E+00 0.12306187313E+00 0.12351656947E+00 0.11904533266E+00
 0.11199040168E+00 0.10449042036E+00 0.97078063941E-01 0.89509602484E-01 0.82010330482E-01
 0.75239381785E-01 0.69420739672E-01 0.64030241112E-01 0.58369775010E-01 0.52308344612E-01
 0.46634335133E-01 0.42868678996E-01 0.42337547838E-01 0.44721008251E-01 0.47456054028E-01
 0.47410347218E-01 0.43936029979E-01 0.40120850305E-01 0.40254242606E-01 0.45633299401E-01
 0.53080229365E-01 0.57924806695E-01 0.58530131780E-01 0.57909194822E-01 0.68452809358E-01
 0.77245762040E-01 0.88984841204E-01 0.10036752637E+00 0.10915062421E+00 0.11576146845E+00
 0.12209897548E+00 0.12886664256E+00 0.13443201874E+00 0.13657687475E+00 0.13508712933E+00
 0.13198595761E+00 0.12903073717E+00 0.12553030649E+00 0.11919359199E+00 0.10899871081E+00
 0.96736443544E-01 0.85678247158E-01 0.78068266441E-01 0.73848240007E-01 0.71167164065E-01
 0.67772314134E-01 0.62505603242E-01 0.56318266384E-01 0.51828199477E-01 0.51072912215E-01
 0.53228842674E-01 0.54984462140E-01 0.53763545873E-01 0.50497430817E-01 0.48720566055E-01
 0.50844732997E-01 0.55730835883E-01 0.60157062267E-01 0.62404561916E-01 0.64077839456E-01
 0.82453075846E-01 0.90639920669E-01 0.10052861580E+00 0.11100219537E+00 0.12151697936E+00
 0.13229914127E+00 0.14311160968E+00 0.15203710265E+00 0.15630592481E+00 0.15507264869E+00
 0.15112911277E+00 0.14882293638E+00 0.14963381712E+00 0.15017388498E+00 0.14519925691E+00
 0.13267941039E+00 0.11577047694E+00 0.10018624849E+00 0.90112582514E-01 0.86140449976E-01
 0.85699193903E-01 0.84746212131E-01 0.80071573355E-01 0.71638408458E-01 0.63088905060E-01
 0.58946763422E-01 0.60436097997E-01 0.64222724383E-01 0.65746080039E-01 0.63655428129E-01
 0.60614767477E-01 0.60048973255E-01 0.62838649614E-01 0.67332854908E-01 0.71849486169E-01
 0.76460901811E-01 0.10071866042E+00 0.10871415960E+00 0.11711753692E+00 0.12716181386E+00
 0.13992818233E+00 0.15516972683E+00 0.17044022699E+00 0.18148577171E+00 0.18463936518E+00
 0.18014695057E+00 0.17314936261E+00 0.17000793283E+00 0.17245261911E+00 0.17543901821E+00
 0.17149293249E+00 0.15744974645E+00 0.13702596830E+00 0.11747782323E+00 0.10444198924E+00
 0.99260104665E-01 0.99223966368E-01 0.99254131403E-01 0.94629901966E-01 0.84390649926E-01
 0.72811120840E-01 0.66347375822E-01 0.67916717130E-01 0.74185404034E-01 0.78883162373E-01
 0.78579833101E-01 0.74970688933E-01 0.72200681793E-01 0.73029954353E-01 0.77583980519E-01
 0.84553642994E-01 0.92570894008E-01 0.11839902845E+00 0.12727939850E+00 0.13565804396E+00
 0.14647489966E+00 0.16203610877E+00 0.18176422349E+00 0.20151421268E+00 0.21516076123E+00
 0.21819775832E+00 0.21143184847E+00 0.20140752408E+00 0.19581112249E+00 0.19697329695E+00
 0.19962581421E+00 0.19556074111E+00 0.18082500460E+00 0.15868225028E+00 0.13647820017E+00
 0.12042022147E+00 0.11256559425E+00 0.11062409278E+00 0.10939621946E+00 0.10368268010E+00
 0.92183720378E-01 0.79397047707E-01 0.72522628334E-01 0.75183893454E-01 0.84013203929E-01
 0.91694281409E-01 0.93245364246E-01 0.89363805162E-01 0.84599172507E-01 0.83391410296E-01
 0.87651578093E-01 0.96604152968E-01 0.10776179593E+00 0.13259260743E+00 0.14350962219E+00
 0.15359633168E+00 0.16631205065E+00 0.18461123562E+00 0.20811382661E+00 0.23203015011E+00
 0.24907547491E+00 0.25388362926E+00 0.24711750943E+00 0.23557652591E+00 0.22723356069E+00
 0.22492147875E+00 0.22434340557E+00 0.21826109309E+00 0.20278763910E+00 0.18016461884E+00
 0.15652703063E+00 0.13767552559E+00 0.12615466110E+00 0.12047541784E+00 0.11614444254E+00
 0.10850730224E+00 0.96502826592E-01 0.84347519832E-01 0.78646133357E-01 0.82682859612E-01
 0.93154367261E-01 0.10263040213E+00 0.10538448125E+00 0.10128015247E+00 0.94967550445E-01
 0.92104065086E-01 0.95944523226E-01 0.10612103410E+00 0.11954284405E+00 0.14553986256E+00
 0.15903732629E+00 0.17176046960E+00 0.18681532841E+00 0.20727936520E+00 0.23327451654E+00
 0.26035064873E+00 0.28110134878E+00 0.28970184767E+00 0.28608080568E+00 0.27594115651E+00
 0.26619838157E+00 0.25969018368E+00 0.25371972942E+00 0.24326406888E+00 0.22550430939E+00
 0.20189089528E+00 0.17690610431E+00 0.15530694766E+00 0.13975537967E+00 0.12968442056E+00
 0.12182851119E+00 0.11260210525E+00 0.10120848793E+00 0.90925730973E-01 0.86818200425E-01
 0.91314690782E-01 0.10152094319E+00 0.11088392095E+00 0.11391404621E+00 0.11001651109E+00
 0.10352771321E+00 0.10040540058E+00 0.10442238738E+00 0.11544502895E+00 0.13036973530E+00
 0.16237499947E+00 0.17831074112E+00 0.19362535481E+00 0.21092313084E+00 0.23302735137E+00
 0.26030837408E+00 0.28909374944E+00 0.31295164177E+00 0.32646374580E+00 0.32859188809E+00
 0.32273155715E+00 0.31347460838E+00 0.30306765385E+00 0.29050910450E+00 0.27348148458E+00
 0.25093879559E+00 0.22428404639E+00 0.19678838088E+00 0.17209239824E+00 0.15263628495E+00
 0.13861106299E+00 0.12805802652E+00 0.11843034555E+00 0.10880722321E+00 0.10095771925E+00
 0.98006234098E-01 0.10150335815E+00 0.10938983257E+00 0.11684699342E+00 0.11959285491E+00
 0.11700394350E+00 0.11255442428E+00 0.11134602695E+00 0.11681399530E+00 0.12901740806E+00
 0.14530365791E+00 0.18535196035E+00 0.20337206585E+00 0.22095052094E+00 0.24044017295E+00
 0.26417983097E+00 0.29228559143E+00 0.32177063682E+00 0.34775296405E+00 0.36590531772E+00
 0.37434003049E+00 0.37369206650E+00 0.36571116072E+00 0.35175345478E+00 0.33231174987E+00
 0.30762030588E+00 0.27854669509E+00 0.24701688475E+00 0.21575904646E+00 0.18757338883E+00
 0.16445825328E+00 0.14696213757E+00 0.13416461443E+00 0.12447539792E+00 0.11686134277E+00
 0.11158722033E+00 0.10974560685E+00 0.11183880885E+00 0.11664027984E+00 0.12149513411E+00
 0.12402521608E+00 0.12393497263E+00 0.12345564927E+00 0.12604657462E+00 0.13429459374E+00
 0.14844241683E+00 0.16643199724E+00 0.21081741305E+00 0.23072830725E+00 0.25044891490E+00
 0.27238473260E+00 0.29838657801E+00 0.32799441666E+00 0.35845878771E+00 0.38609140666E+00
 0.40756045499E+00 0.42039939616E+00 0.42307936861E+00 0.41516049107E+00 0.39742988727E+00
 0.37166137404E+00 0.34007320131E+00 0.30495784049E+00 0.26867098573E+00 0.23362129994E+00
 0.20191090901E+00 0.17483880918E+00 0.15279840013E+00 0.13571107102E+00 0.12352771166E+00
 0.11626768230E+00 0.11361655797E+00 0.11460078093E+00 0.11774550131E+00 0.12159267071E+00
 0.12515353575E+00 0.12809571301E+00 0.13083368158E+00 0.13463980684E+00 0.14146795279E+00
 0.15308940668E+00 0.16982368961E+00 0.18996832583E+00 0.23232298985E+00 0.25404195299E+00
 0.27578386569E+00 0.30045060344E+00 0.32975861928E+00 0.36258300205E+00 0.39566397943E+00
 0.42535879193E+00 0.44852731920E+00 0.46235606002E+00 0.46442369522E+00 0.45367138215E+00
 0.43129165162E+00 0.40031037998E+00 0.36413924634E+00 0.32551840379E+00 0.28652894063E+00
 0.24888868610E+00 0.21367484650E+00 0.18097198324E+00 0.15058491308E+00 0.12364128318E+00
 0.10324572552E+00 0.92804797258E-01 0.93141245624E-01 0.10119337295E+00 0.11176309542E+00
 0.12075725284E+00 0.12703506797E+00 0.13172865456E+00 0.13653862596E+00 0.14297810079E+00
 0.15264990399E+00 0.16709725942E+00 0.18660757117E+00 0.20932933582E+00 0.24637381181E+00
 0.26977733195E+00 0.29313981357E+00 0.32051681848E+00 0.35413197644E+00 0.39219897968E+00
 0.43006012409E+00 0.46274669589E+00 0.48631513133E+00 0.49771020443E+00 0.49487736988E+00
 0.47786400691E+00 0.44949440370E+00 0.41419693769E+00 0.37580388438E+00 0.33643035567E+00
 0.29700278692E+00 0.25787128467E+00 0.21837661664E+00 0.17668457648E+00 0.13184466971E+00
 0.87193717423E-01 0.51251241627E-01 0.33562887134E-01 0.38023843305E-01 0.59507985710E-01
 0.87027724287E-01 0.11062925829E+00 0.12617974904E+00 0.13506953158E+00 0.14095542877E+00
 0.14737416110E+00 0.15734945616E+00 0.17318985526E+00 0.19522362515E+00 0.22090706846E+00
 0.25457360936E+00 0.27953524984E+00 0.30403964675E+00 0.33380085785E+00 0.37213158280E+00
 0.41669559953E+00 0.46084371346E+00 0.49728270492E+00 0.52049626873E+00 0.52717319248E+00
 0.51642276883E+00 0.49054748903E+00 0.45484132687E+00 0.41526456392E+00 0.37560011572E+00
 0.33666916023E+00 0.29763086744E+00 0.25686275891E+00 0.21130226840E+00 0.15670509172E+00
 0.91522410177E-01 0.22406500271E-01 -.34824444699E-01 -.62430529571E-01 -.52023456910E-01
 -.10733142836E-01 0.43076078788E-01 0.90845766271E-01 0.12275972289E+00 0.13908061103E+00
 0.14579710416E+00 0.15002699591E+00 0.15790179661E+00 0.17354879484E+00 0.19757687655E+00
 0.22638659160E+00 0.26041614936E+00 0.28683373437E+00 0.31223128527E+00 0.34390853016E+00
 0.38643646054E+00 0.43720564754E+00 0.48764230838E+00 0.52786861278E+00 0.55046913107E+00
 0.55182355868E+00 0.53244334328E+00 0.49712706190E+00 0.45366422442E+00 0.40943318003E+00
 0.36809530236E+00 0.32915798237E+00 0.28991121810E+00 0.24654703340E+00 0.19344745596E+00
 0.12405214183E+00 0.36547524729E-01 -.58689874316E-01 -.13818504050E+00 -.17569029391E+00
 -.15803036859E+00 -.94182232830E-01 -.10115420653E-01 0.66244842216E-01 0.11830301030E+00
 0.14429281218E+00 0.15232156205E+00 0.15360887990E+00 0.15821018499E+00 0.17266367587E+00
 0.19804673876E+00 0.22964977768E+00 0.26507089259E+00 0.29264859295E+00 0.31877632823E+00
 0.35176264872E+00 0.39712714260E+00 0.45226199580E+00 0.50730932987E+00 0.55038368643E+00
 0.57247170863E+00 0.56966965420E+00 0.54361349914E+00 0.50098682429E+00 0.45134448807E+00
 0.40305914003E+00 0.35978349730E+00 0.32015966816E+00 0.28006164615E+00 0.23392098949E+00
 0.17415798885E+00 0.92593961568E-01 -.12592135134E-01 -.12807552766E+00 -.22451995651E+00
 -.26917943341E+00 -.24520222159E+00 -.16296090680E+00 -.54267307349E-01 0.45656272178E-01
 0.11473989262E+00 0.14929938424E+00 0.15884421107E+00 0.15782497462E+00 0.15960083265E+00
 0.17279892431E+00 0.19892465598E+00 0.23243364401E+00 0.26700668548E+00 0.29504450347E+00
 0.32148005343E+00 0.35494404061E+00 0.40130046101E+00 0.45799131344E+00 0.51472622793E+00
 0.55886313220E+00 0.58075580540E+00 0.57638255233E+00 0.54781093106E+00 0.50242062710E+00
 0.45039105368E+00 0.40044978739E+00 0.35627481916E+00 0.31622262531E+00 0.27563939975E+00
 0.22827474652E+00 0.16581343252E+00 0.79505284649E-01 -.32435651791E-01 -.15556469146E+00
 -.25834665897E+00 -.30559447681E+00 -.27907521812E+00 -.18969389041E+00 -.71469224137E-01
 0.37619006391E-01 0.11340686709E+00 0.15142724234E+00 0.16166691051E+00 0.15979773584E+00
 0.16047378221E+00 0.17315162109E+00 0.19950669320E+00 0.23368520942E+00 0.26507089259E+00
 0.29264859295E+00 0.31877632823E+00 0.35176264872E+00 0.39712714260E+00 0.45226199580E+00
 0.50730932987E+00 0.55038368643E+00 0.57247170863E+00 0.56966965420E+00 0.54361349914E+00
 0.50098682429E+00 0.45134448807E+00 0.40305914003E+00 0.35978349730E+00 0.32015966816E+00
 0.28006164615E+00 0.23392098949E+00 0.17415798885E+00 0.92593961568E-01 -.12592135134E-01
 -.12807552766E+00 -.22451995651E+00 -.26917943341E+00 -.24520222159E+00 -.16296090680E+00
 -.54267307349E-01 0.45656272178E-01 0.11473989262E+00 0.14929938424E+00 0.15884421107E+00
 0.15782497462E+00 0.15960083265E+00 0.17279892431E+00 0.19892465598E+00 0.23243364401E+00
 0.26041614936E+00 0.28683373437E+00 0.31223128527E+00 0.34390853016E+00 0.38643646054E+00
 0.43720564754E+00 0.48764230838E+00 0.52786861278E+00 0.55046913107E+00 0.55182355868E+00
 0.53244334328E+00 0.49712706190E+00 0.45366422442E+00 0.40943318003E+00 0.36809530236E+00
 0.32915798237E+00 0.28991121810E+00 0.24654703340E+00 0.19344745596E+00 0.12405214183E+00
 0.36547524729E-01 -.58689874316E-01 -.13818504050E+00 -.17569029391E+00 -.15803036859E+00
 -.94182232830E-01 -.10115420653E-01 0.66244842216E-01 0.11830301030E+00 0.14429281218E+00
 0.15232156205E+00 0.15360887990E+00 0.15821018499E+00 0.17266367587E+00 0.19804673876E+00
 0.22964977768E+00 0.25457360936E+00 0.27953524984E+00 0.30403964675E+00 0.33380085785E+00
 0.37213158280E+00 0.41669559953E+00 0.46084371346E+00 0.49728270492E+00 0.52049626873E+00
 0.52717319248E+00 0.51642276883E+00 0.49054748903E+00 0.45484132687E+00 0.41526456392E+00
 0.37560011572E+00 0.33666916023E+00 0.29763086744E+00 0.25686275891E+00 0.21130226840E+00
 0.15670509172E+00 0.91522410177E-01 0.22406500271E-01 -.34824444699E-01 -.62430529571E-01
 -.52023456910E-01 -.10733142836E-01 0.43076078788E-01 0.90845766271E-01 0.12275972289E+00
 0.13908061103E+00 0.14579710416E+00 0.15002699591E+00 0.15790179661E+00 0.17354879484E+00
 0.19757687655E+00 0.22638659160E+00 0.24637381181E+00 0.26977733195E+00 0.29313981357E+00
 0.32051681848E+00 0.35413197644E+00 0.39219897968E+00 0.43006012409E+00 0.46274669589E+00
 0.48631513133E+00 0.49771020443E+00 0.49487736988E+00 0.47786400691E+00 0.44949440370E+00
 0.41419693769E+00 0.37580388438E+00 0.33643035567E+00 0.29700278692E+00 0.25787128467E+00
 0.21837661664E+00 0.17668457648E+00 0.13184466971E+00 0.87193717423E-01 0.51251241627E-01
 0.33562887134E-01 0.38023843305E-01 0.59507985710E-01 0.87027724287E-01 0.11062925829E+00
 0.12617974904E+00 0.13506953158E+00 0.14095542877E+00 0.14737416110E+00 0.15734945616E+00
 0.17318985526E+00 0.19522362515E+00 0.22090706846E+00 0.23232298985E+00 0.25404195299E+00
 0.27578386569E+00 0.30045060344E+00 0.32975861928E+00 0.36258300205E+00 0.39566397943E+00
 0.42535879193E+00 0.44852731920E+00 0.46235606002E+00 0.46442369522E+00 0.45367138215E+00
 0.43129165162E+00 0.40031037998E+00 0.36413924634E+00 0.32551840379E+00 0.28652894063E+00
 0.24888868610E+00 0.21367484650E+00 0.18097198324E+00 0.15058491308E+00 0.12364128318E+00
 0.10324572552E+00 0.92804797258E-01 0.93141245624E-01 0.10119337295E+00 0.11176309542E+00
 0.12075725284E+00 0.12703506797E+00 0.13172865456E+00 0.13653862596E+00 0.14297810079E+00
 0.15264990399E+00 0.16709725942E+00 0.18660757117E+00 0.20932933582E+00 0.21081741305E+00
 0.23072830725E+00 0.25044891490E+00 0.27238473260E+00 0.29838657801E+00 0.32799441666E+00
 0.35845878771E+00 0.38609140666E+00 0.40756045499E+00 0.42039939616E+00 0.42307936861E+00
 0.41516049107E+00 0.39742988727E+00 0.37166137404E+00 0.34007320131E+00 0.30495784049E+00
 0.26867098573E+00 0.23362129994E+00 0.20191090901E+00 0.17483880918E+00 0.15279840013E+00
 0.13571107102E+00 0.12352771166E+00 0.11626768230E+00 0.11361655797E+00 0.11460078093E+00
 0.11774550131E+00 0.12159267071E+00 0.12515353575E+00 0.12809571301E+00 0.13083368158E+00
 0.13463980684E+00 0.14146795279E+00 0.15308940668E+00 0.16982368961E+00 0.18996832583E+00
 0.18535196035E+00 0.20337206585E+00 0.22095052094E+00 0.24044017295E+00 0.26417983097E+00
 0.29228559143E+00 0.32177063682E+00 0.34775296405E+00 0.36590531772E+00 0.37434003049E+00
 0.37369206650E+00 0.36571116072E+00 0.35175345478E+00 0.33231174987E+00 0.30762030588E+00
 0.27854669509E+00 0.24701688475E+00 0.21575904646E+00 0.18757338883E+00 0.16445825328E+00
 0.14696213757E+00 0.13416461443E+00 0.12447539792E+00 0.11686134277E+00 0.11158722033E+00
 0.10974560685E+00 0.11183880885E+00 0.11664027984E+00 0.12149513411E+00 0.12402521608E+00
 0.12393497263E+00 0.12345564927E+00 0.12604657462E+00 0.13429459374E+00 0.14844241683E+00
 0.16643199724E+00 0.16237499947E+00 0.17831074112E+00 0.19362535481E+00 0.21092313084E+00
 0.23302735137E+00 0.26030837408E+00 0.28909374944E+00 0.31295164177E+00 0.32646374580E+00
 0.32859188809E+00 0.32273155715E+00 0.31347460838E+00 0.30306765385E+00 0.29050910450E+00
 0.27348148458E+00 0.25093879559E+00 0.22428404639E+00 0.19678838088E+00 0.17209239824E+00
 0.15263628495E+00 0.13861106299E+00 0.12805802652E+00 0.11843034555E+00 0.10880722321E+00
 0.10095771925E+00 0.98006234098E-01 0.10150335815E+00 0.10938983257E+00 0.11684699342E+00
 0.11959285491E+00 0.11700394350E+00 0.11255442428E+00 0.11134602695E+00 0.11681399530E+00
 0.12901740806E+00 0.14530365791E+00 0.14553986256E+00 0.15903732629E+00 0.17176046960E+00
 0.18681532841E+00 0.20727936520E+00 0.23327451654E+00 0.26035064873E+00 0.28110134878E+00
 0.28970184767E+00 0.28608080568E+00 0.27594115651E+00 0.26619838157E+00 0.25969018368E+00
 0.25371972942E+00 0.24326406888E+00 0.22550430939E+00 0.20189089528E+00 0.17690610431E+00
 0.15530694766E+00 0.13975537967E+00 0.12968442056E+00 0.12182851119E+00 0.11260210525E+00
 0.10120848793E+00 0.90925730973E-01 0.86818200425E-01 0.91314690782E-01 0.10152094319E+00
 0.11088392095E+00 0.11391404621E+00 0.11001651109E+00 0.10352771321E+00 0.10040540058E+00
 0.10442238738E+00 0.11544502895E+00 0.13036973530E+00 0.13259260743E+00 0.14350962219E+00
 0.15359633168E+00 0.16631205065E+00 0.18461123562E+00 0.20811382661E+00 0.23203015011E+00
 0.24907547491E+00 0.25388362926E+00 0.24711750943E+00 0.23557652591E+00 0.22723356069E+00
 0.22492147875E+00 0.22434340557E+00 0.21826109309E+00 0.20278763910E+00 0.18016461884E+00
 0.15652703063E+00 0.13767552559E+00 0.12615466110E+00 0.12047541784E+00 0.11614444254E+00
 0.10850730224E+00 0.96502826592E-01 0.84347519832E-01 0.78646133357E-01 0.82682859612E-01
 0.93154367261E-01 0.10263040213E+00 0.10538448125E+00 0.10128015247E+00 0.94967550445E-01
 0.92104065086E-01 0.95944523226E-01 0.10612103410E+00 0.11954284405E+00 0.11839902845E+00
 0.12727939850E+00 0.13565804395E+00 0.14647489966E+00 0.16203610877E+00 0.18176422349E+00
 0.20151421268E+00 0.21516076123E+00 0.21819775832E+00 0.21143184847E+00 0.20140752408E+00
 0.19581112249E+00 0.19697329695E+00 0.19962581421E+00 0.19556074111E+00 0.18082500460E+00
 0.15868225028E+00 0.13647820017E+00 0.12042022147E+00 0.11256559425E+00 0.11062409278E+00
 0.10939621946E+00 0.10368268010E+00 0.92183720378E-01 0.79397047707E-01 0.72522628334E-01
 0.75183893454E-01 0.84013203929E-01 0.91694281409E-01 0.93245364246E-01 0.89363805162E-01
 0.84599172507E-01 0.83391410296E-01 0.87651578093E-01 0.96604152968E-01 0.10776179593E+00
 0.10071866042E+00 0.10871415960E+00 0.11711753692E+00 0.12716181386E+00 0.13992818233E+00
 0.15516972683E+00 0.17044022699E+00 0.18148577171E+00 0.18463936518E+00 0.18014695057E+00
 0.17314936261E+00 0.17000793283E+00 0.17245261911E+00 0.17543901821E+00 0.17149293249E+00
 0.15744974645E+00 0.13702596830E+00 0.11747782323E+00 0.10444198924E+00 0.99260104665E-01
 0.99223966368E-01 0.99254131403E-01 0.94629901966E-01 0.84390649926E-01 0.72811120840E-01
 0.66347375822E-01 0.67916717130E-01 0.74185404034E-01 0.78883162373E-01 0.78579833101E-01
 0.74970688933E-01 0.72200681793E-01 0.73029954353E-01 0.77583980519E-01 0.84553642994E-01
 0.92570894008E-01 0.82453075846E-01 0.90639920669E-01 0.10052861580E+00 0.11100219537E+00
 0.12151697936E+00 0.13229914127E+00 0.14311160968E+00 0.15203710265E+00 0.15630592481E+00
 0.15507264869E+00 0.15112911277E+00 0.14882293638E+00 0.14963381712E+00 0.15017388498E+00
 0.14519925691E+00 0.13267941039E+00 0.11577047694E+00 0.10018624849E+00 0.90112582514E-01
 0.86140449976E-01 0.85699193903E-01 0.84746212131E-01 0.80071573355E-01 0.71638408458E-01
 0.63088905060E-01 0.58946763422E-01 0.60436097997E-01 0.64222724383E-01 0.65746080039E-01
 0.63655428129E-01 0.60614767477E-01 0.60048973255E-01 0.62838649614E-01 0.67332854908E-01
 0.71849486169E-01 0.76460901811E-01 0.68452809358E-01 0.77245762040E-01 0.88984841204E-01
 0.10036752637E+00 0.10915062421E+00 0.11576146845E+00 0.12209897548E+00 0.12886664256E+00
 0.13443201874E+00 0.13657687475E+00 0.13508712933E+00 0.13198595761E+00 0.12903073717E+00
 0.12553030649E+00 0.11919359199E+00 0.10899871081E+00 0.96736443544E-01 0.85678247158E-01
 0.78068266441E-01 0.73848240007E-01 0.71167164065E-01 0.67772314134E-01 0.62505603242E-01
 0.56318266384E-01 0.51828199477E-01 0.51072912215E-01 0.53228842674E-01 0.54984462140E-01
 0.53763545873E-01 0.50497430817E-01 0.48720566055E-01 0.50844732997E-01 0.55730835883E-01
 0.60157062267E-01 0.62404561916E-01 0.64077839456E-01 0.60993869167E-01 0.70213068999E-01
 0.83312461543E-01 0.95184589047E-01 0.10206961674E+00 0.10450154378E+00 0.10637869974E+00
 0.11099001217E+00 0.11779349765E+00 0.12306187313E+00 0.12351656947E+00 0.11904533266E+00
 0.11199040168E+00 0.10449042036E+00 0.97078063941E-01 0.89509602484E-01 0.82010330482E-01
 0.75239381785E-01 0.69420739672E-01 0.64030241112E-01 0.58369775010E-01 0.52308344612E-01
 0.46634335133E-01 0.42868678996E-01 0.42337547838E-01 0.44721008251E-01 0.47456054028E-01
 0.47410347218E-01 0.43936029979E-01 0.40120850305E-01 0.40254242606E-01 0.45633299401E-01
 0.53080229365E-01 0.57924806695E-01 0.58530131780E-01 0.57909194822E-01 0.58632519862E-01
 0.67974329193E-01 0.81850318094E-01 0.93465723402E-01 0.97844230964E-01 0.95995565061E-01
 0.93857692259E-01 0.96826344859E-01 0.10487616355E+00 0.11276814621E+00 0.11482121813E+00
 0.10943174666E+00 0.99450650051E-01 0.89125246450E-01 0.81152098505E-01 0.75969186428E-01
 0.72563941179E-01 0.69338528867E-01 0.64744519342E-01 0.58011641262E-01 0.49716045570E-01
 0.41641248553E-01 0.35983949879E-01 0.34364227566E-01 0.36848874566E-01 0.41294400712E-01
 0.43984753585E-01 0.42150878791E-01 0.36794595935E-01 0.32746871948E-01 0.34885647947E-01
 0.43571049593E-01 0.53865229571E-01 0.59707914253E-01 0.59312053509E-01 0.56801452685E-01
 0.58501380428E-01 0.67830051112E-01 0.82136147720E-01 0.93147718318E-01 0.95064697510E-01
 0.89670990843E-01 0.84686983095E-01 0.86816668489E-01 0.95944974383E-01 0.10563081780E+00
 0.10882355408E+00 0.10318258736E+00 0.91803086313E-01 0.80034718300E-01 0.71890322997E-01
 0.68386539428E-01 0.67800593355E-01 0.66985366090E-01 0.63155495543E-01 0.55469544553E-01
 0.45501029542E-01 0.36313398719E-01 0.30876803004E-01 0.30700026057E-01 0.34955878778E-01
 0.40364571666E-01 0.42594470193E-01 0.39262963911E-01 0.32525738663E-01 0.28335870625E-01
 0.31934088663E-01 0.43103490405E-01 0.55740318551E-01 0.62671912369E-01 0.61739832230E-01
 0.57768159004E-01 0.58501380428E-01 0.67830051112E-01 0.82136147720E-01 0.93147718318E-01
 0.95064697510E-01 0.89670990843E-01 0.84686983095E-01 0.86816668489E-01 0.95944974383E-01
 0.10563081780E+00 0.10882355408E+00 0.10318258736E+00 0.91803086313E-01 0.80034718300E-01
 0.71890322997E-01 0.68386539428E-01 0.67800593355E-01 0.66985366090E-01 0.63155495543E-01
 0.55469544553E-01 0.45501029542E-01 0.36313398719E-01 0.30876803004E-01 0.30700026057E-01
 0.34955878778E-01 0.40364571666E-01 0.42594470193E-01 0.39262963911E-01 0.32525738663E-01
 0.28335870625E-01 0.31934088663E-01 0.43103490405E-01 0.55740318551E-01 0.62671912369E-01
 0.61739832230E-01 0.57768159004E-01 0.58481879816E-01 0.67846814265E-01 0.82052807413E-01
 0.93345196609E-01 0.96195799372E-01 0.92083652741E-01 0.88088839196E-01 0.90482180985E-01
 0.99216740395E-01 0.10827203305E+00 0.11103869070E+00 0.10540986018E+00 0.94423177484E-01
 0.83101267825E-01 0.75036260934E-01 0.71040368620E-01 0.69604959435E-01 0.68071209039E-01
 0.64025227545E-01 0.56610900717E-01 0.47070744622E-01 0.38095090414E-01 0.32464818505E-01
 0.31762786225E-01 0.35456889633E-01 0.40625390374E-01 0.43116387387E-01 0.40385425561E-01
 0.34169500815E-01 0.30032238917E-01 0.33102809817E-01 0.43374759624E-01 0.55148031791E-01
 0.61640026737E-01 0.60841881862E-01 0.57356244840E-01 0.59007777875E-01 0.68415833295E-01
 0.82293492003E-01 0.94140249426E-01 0.99186548440E-01 0.98315147637E-01 0.97036311675E-01
 0.10033157392E+00 0.10809811344E+00 0.11541206493E+00 0.11706190673E+00 0.11174171217E+00
 0.10224749133E+00 0.92484981556E-01 0.84774506169E-01 0.79406301377E-01 0.75533668024E-01
 0.71883167282E-01 0.67129678432E-01 0.60479598895E-01 0.52300596881E-01 0.44154092186E-01
 0.38138080104E-01 0.35949270413E-01 0.37887246263E-01 0.42095823517E-01 0.45016173244E-01
 0.43748468422E-01 0.38910797778E-01 0.34948781872E-01 0.36625633839E-01 0.44522393412E-01
 0.54084030410E-01 0.59546378157E-01 0.59180488238E-01 0.56936702395E-01 0.62018189382E-01
 0.71291966068E-01 0.84440819511E-01 0.96485825166E-01 0.10380010098E+00 0.10689836934E+00
 0.10943079370E+00 0.11435384430E+00 0.12099222495E+00 0.12583324640E+00 0.12600755806E+00
 0.12168872009E+00 0.11518849319E+00 0.10836852328E+00 0.10145846475E+00 0.94062317982E-01
 0.86441891006E-01 0.79405643693E-01 0.73321422899E-01 0.67714489431E-01 0.61831549886E-01
 0.55447679791E-01 0.49304501712E-01 0.44973638997E-01 0.43928886976E-01 0.46043976481E-01
 0.48889053550E-01 0.49279843270E-01 0.46300814614E-01 0.42703994255E-01 0.42615498177E-01
 0.47459244035E-01 0.54354241882E-01 0.58862993564E-01 0.59388280523E-01 0.58838469600E-01
 0.70284605125E-01 0.79095313566E-01 0.90865047128E-01 0.10235059184E+00 0.11138051046E+00
 0.11838769358E+00 0.12514880432E+00 0.13218298608E+00 0.13777772705E+00 0.13982871219E+00
 0.13833605302E+00 0.13546781428E+00 0.13298267051E+00 0.13008655378E+00 0.12433149669E+00
 0.11451234395E+00 0.10227671588E+00 0.90893331641E-01 0.82760376799E-01 0.78007457120E-01
 0.74865221266E-01 0.71047695424E-01 0.65348041783E-01 0.58721086274E-01 0.53828404459E-01
 0.52772100849E-01 0.54817678522E-01 0.56723662570E-01 0.55861459677E-01 0.52954364495E-01
 0.51309187303E-01 0.53280782324E-01 0.57876552480E-01 0.62068101369E-01 0.64217181339E-01
 0.65887142459E-01 0.85114334559E-01 0.93324072913E-01 0.10322952376E+00 0.11370560814E+00
 0.12423948021E+00 0.13512436553E+00 0.14616655109E+00 0.15544001313E+00 0.16014353960E+00
 0.15938789513E+00 0.15588184986E+00 0.15388117197E+00 0.15487288679E+00 0.15560211848E+00
 0.15091920009E+00 0.13866764708E+00 0.12172698497E+00 0.10566814225E+00 0.94828534658E-01
 0.90091775556E-01 0.89065558742E-01 0.87712398249E-01 0.82772467988E-01 0.74163687004E-01
 0.65437580664E-01 0.61003261681E-01 0.62097216685E-01 0.65589460363E-01 0.67135487459E-01
 0.65374815432E-01 0.62740921006E-01 0.62445500949E-01 0.65344391186E-01 0.69883174512E-01
 0.74443979053E-01 0.79095379998E-01 0.10416159417E+00 0.11225539713E+00 0.12070965447E+00
 0.13063383036E+00 0.14312096901E+00 0.15814064420E+00 0.17352921705E+00 0.18519563355E+00
 0.18942350434E+00 0.18618794492E+00 0.18020830463E+00 0.17748713018E+00 0.17973114558E+00
 0.18224933511E+00 0.17796764052E+00 0.16377890413E+00 0.14311057530E+00 0.12296045378E+00
 0.10903154396E+00 0.10295867087E+00 0.10227423591E+00 0.10197872025E+00 0.97332953621E-01
 0.87261572552E-01 0.75770642774E-01 0.69008109515E-01 0.69837896342E-01 0.75257787870E-01
 0.79458673281E-01 0.79220184646E-01 0.76101091624E-01 0.73981313357E-01 0.75433559065E-01
 0.80484109870E-01 0.87766597195E-01 0.95930056551E-01 0.12258928657E+00 0.13167602729E+00
 0.14016573650E+00 0.15078824758E+00 0.16585623245E+00 0.18513445299E+00 0.20497421260E+00
 0.21959073570E+00 0.22442901849E+00 0.21979752627E+00 0.21147099892E+00 0.20650950663E+00
 0.20717700929E+00 0.20872902403E+00 0.20361965363E+00 0.18817423592E+00 0.16546480695E+00
 0.14253657859E+00 0.12554383452E+00 0.11675837849E+00 0.11417078954E+00 0.11276576873E+00
 0.10734747097E+00 0.96362598475E-01 0.83823640659E-01 0.76484298122E-01 0.77931199585E-01
 0.85262798661E-01 0.91811594495E-01 0.93002716827E-01 0.89542355013E-01 0.85718417275E-01
 0.85615190435E-01 0.90811176032E-01 0.10034210714E+00 0.11177265014E+00 0.13746839384E+00
 0.14870813690E+00 0.15900395709E+00 0.17162198762E+00 0.18950113972E+00 0.21257130063E+00
 0.23662151366E+00 0.25491326468E+00 0.26215554686E+00 0.25836182422E+00 0.24921381908E+00
 0.24178896767E+00 0.23882673366E+00 0.23669804222E+00 0.22900458558E+00 0.21230306591E+00
 0.18878087687E+00 0.16431579576E+00 0.14457468219E+00 0.13221854239E+00 0.12605174646E+00
 0.12184288640E+00 0.11490628220E+00 0.10372149116E+00 0.91800882652E-01 0.85246441047E-01
 0.87408047202E-01 0.95599260943E-01 0.10319574800E+00 0.10505615354E+00 0.10118695120E+00
 0.95945146689E-01 0.94441736703E-01 0.99422224045E-01 0.11030296656E+00 0.12411107769E+00
 0.15085922501E+00 0.16486363477E+00 0.17805594242E+00 0.19340234152E+00 0.21388231136E+00
 0.23975118031E+00 0.26710822779E+00 0.28930365137E+00 0.30080017185E+00 0.30081139707E+00