   2   2   0   0
  0.3200000E+02  0.4000000E-09  0.4000000E-09  0.4000000E-09  0.5000000E-15
  1.000000000000000E-004
  CAR 
 unknown system                          
     24.18922987    -28.45049263  301     -7.41045446      1.00000000
    -28.450  0.0000E+00  0.0000E+00
    -28.275  0.0000E+00  0.0000E+00
    -28.100  0.0000E+00  0.0000E+00
    -27.924  0.0000E+00  0.0000E+00
    -27.749 -0.2474E-29 -0.4340E-30
    -27.573 -0.2844E-23 -0.4990E-24
    -27.398 -0.6920E-18 -0.1214E-18
    -27.222 -0.3423E-13 -0.6007E-14
    -27.047 -0.3664E-09 -0.6430E-10
    -26.871 -0.8025E-06 -0.1409E-06
    -26.696 -0.3524E-03 -0.6197E-04
    -26.520 -0.2886E-01 -0.5126E-02
    -26.345 -0.3173E+00 -0.6080E-01
    -26.169  0.1482E+01  0.1992E+00
    -25.994  0.7475E+01  0.1511E+01
    -25.819  0.3191E+01  0.2071E+01
    -25.643 -0.3314E+00  0.2013E+01
    -25.468 -0.6990E-01  0.2000E+01
    -25.292 -0.1391E-02  0.2000E+01
    -25.117 -0.4956E-05  0.2000E+01
    -24.941 -0.3495E-08  0.2000E+01
    -24.766 -0.5062E-12  0.2000E+01
    -24.590  0.0000E+00  0.2000E+01
    -24.415  0.0000E+00  0.2000E+01
    -24.239  0.0000E+00  0.2000E+01
    -24.064  0.0000E+00  0.2000E+01
    -23.888  0.0000E+00  0.2000E+01
    -23.713  0.0000E+00  0.2000E+01
    -23.537  0.0000E+00  0.2000E+01
    -23.362  0.0000E+00  0.2000E+01
    -23.187  0.0000E+00  0.2000E+01
    -23.011  0.0000E+00  0.2000E+01
    -22.836  0.0000E+00  0.2000E+01
    -22.660  0.0000E+00  0.2000E+01
    -22.485  0.0000E+00  0.2000E+01
    -22.309  0.0000E+00  0.2000E+01
    -22.134  0.0000E+00  0.2000E+01
    -21.958  0.0000E+00  0.2000E+01
    -21.783  0.0000E+00  0.2000E+01
    -21.607  0.0000E+00  0.2000E+01
    -21.432  0.0000E+00  0.2000E+01
    -21.256  0.0000E+00  0.2000E+01
    -21.081  0.0000E+00  0.2000E+01
    -20.905  0.0000E+00  0.2000E+01
    -20.730  0.0000E+00  0.2000E+01
    -20.555  0.0000E+00  0.2000E+01
    -20.379  0.0000E+00  0.2000E+01
    -20.204  0.0000E+00  0.2000E+01
    -20.028  0.0000E+00  0.2000E+01
    -19.853  0.0000E+00  0.2000E+01
    -19.677  0.0000E+00  0.2000E+01
    -19.502  0.0000E+00  0.2000E+01
    -19.326  0.0000E+00  0.2000E+01
    -19.151  0.0000E+00  0.2000E+01
    -18.975  0.0000E+00  0.2000E+01
    -18.800  0.0000E+00  0.2000E+01
    -18.624  0.0000E+00  0.2000E+01
    -18.449  0.0000E+00  0.2000E+01
    -18.273  0.0000E+00  0.2000E+01
    -18.098  0.0000E+00  0.2000E+01
    -17.923  0.0000E+00  0.2000E+01
    -17.747  0.0000E+00  0.2000E+01
    -17.572  0.0000E+00  0.2000E+01
    -17.396  0.0000E+00  0.2000E+01
    -17.221  0.0000E+00  0.2000E+01
    -17.045  0.0000E+00  0.2000E+01
    -16.870  0.0000E+00  0.2000E+01
    -16.694  0.0000E+00  0.2000E+01
    -16.519  0.0000E+00  0.2000E+01
    -16.343  0.0000E+00  0.2000E+01
    -16.168  0.0000E+00  0.2000E+01
    -15.992  0.0000E+00  0.2000E+01
    -15.817  0.0000E+00  0.2000E+01
    -15.641  0.0000E+00  0.2000E+01
    -15.466  0.0000E+00  0.2000E+01
    -15.291  0.0000E+00  0.2000E+01
    -15.115  0.0000E+00  0.2000E+01
    -14.940  0.0000E+00  0.2000E+01
    -14.764  0.0000E+00  0.2000E+01
    -14.589  0.0000E+00  0.2000E+01
    -14.413  0.0000E+00  0.2000E+01
    -14.238  0.0000E+00  0.2000E+01
    -14.062  0.0000E+00  0.2000E+01
    -13.887  0.0000E+00  0.2000E+01
    -13.711  0.0000E+00  0.2000E+01
    -13.536  0.0000E+00  0.2000E+01
    -13.360  0.0000E+00  0.2000E+01
    -13.185 -0.8398E-31  0.2000E+01
    -13.010 -0.1373E-24  0.2000E+01
    -12.834 -0.4754E-19  0.2000E+01
    -12.659 -0.3473E-14  0.2000E+01
    -12.483 -0.5130E-10  0.2000E+01
    -12.308 -0.1611E-06  0.2000E+01
    -12.132 -0.1022E-03  0.2000E+01
    -11.957 -0.1240E-01  0.1998E+01
    -11.781 -0.2322E+00  0.1957E+01
    -11.606  0.4917E+00  0.2043E+01
    -11.430  0.6600E+01  0.3201E+01
    -11.255  0.4835E+01  0.4050E+01
    -11.079 -0.1494E+00  0.4023E+01
    -10.904 -0.1298E+00  0.4001E+01
    -10.728 -0.3962E-02  0.4000E+01
    -10.553 -0.2057E-04  0.4000E+01
    -10.378 -0.2086E-07  0.4000E+01
    -10.202 -0.4313E-11  0.4000E+01
    -10.027 -0.4218E-15  0.4000E+01
     -9.851 -0.9438E-11  0.4000E+01
     -9.676 -0.4497E-07  0.4000E+01
     -9.500 -0.4365E-04  0.4000E+01
     -9.325 -0.8270E-02  0.3999E+01
     -9.149 -0.2658E+00  0.3952E+01
     -8.974 -0.2711E+00  0.3904E+01
     -8.798  0.9809E+01  0.5626E+01
     -8.623  0.1310E+02  0.7923E+01
     -8.447  0.9179E+00  0.8084E+01
     -8.272 -0.4565E+00  0.8004E+01
     -8.096 -0.3263E-01  0.7998E+01
     -7.921 -0.1974E+00  0.7964E+01
     -7.746  0.2273E+00  0.8004E+01
     -7.570  0.6100E+01  0.9074E+01
     -7.395  0.5447E+01  0.1003E+02
     -7.219 -0.4541E-02  0.1003E+02
     -7.044 -0.1594E+00  0.1000E+02
     -6.868 -0.5773E-02  0.1000E+02
     -6.693 -0.3467E-04  0.1000E+02
     -6.517 -0.4043E-07  0.1000E+02
     -6.342 -0.9585E-11  0.1000E+02
     -6.166  0.0000E+00  0.1000E+02
     -5.991  0.0000E+00  0.1000E+02
     -5.815  0.0000E+00  0.1000E+02
     -5.640  0.0000E+00  0.1000E+02
     -5.464  0.0000E+00  0.1000E+02
     -5.289  0.0000E+00  0.1000E+02
     -5.114  0.0000E+00  0.1000E+02
     -4.938  0.0000E+00  0.1000E+02
     -4.763  0.0000E+00  0.1000E+02
     -4.587  0.0000E+00  0.1000E+02
     -4.412  0.0000E+00  0.1000E+02
     -4.236  0.0000E+00  0.1000E+02
     -4.061  0.0000E+00  0.1000E+02
     -3.885  0.0000E+00  0.1000E+02
     -3.710  0.0000E+00  0.1000E+02
     -3.534  0.0000E+00  0.1000E+02
     -3.359  0.0000E+00  0.1000E+02
     -3.183  0.0000E+00  0.1000E+02
     -3.008  0.0000E+00  0.1000E+02
     -2.832  0.0000E+00  0.1000E+02
     -2.657  0.0000E+00  0.1000E+02
     -2.482  0.0000E+00  0.1000E+02
     -2.306  0.0000E+00  0.1000E+02
     -2.131  0.0000E+00  0.1000E+02
     -1.955  0.0000E+00  0.1000E+02
     -1.780  0.0000E+00  0.1000E+02
     -1.604  0.0000E+00  0.1000E+02
     -1.429 -0.1290E-31  0.1000E+02
     -1.253 -0.2740E-25  0.1000E+02
     -1.078 -0.1233E-19  0.1000E+02
     -0.902 -0.1171E-14  0.1000E+02
     -0.727 -0.2257E-10  0.1000E+02
     -0.551 -0.9257E-07  0.1000E+02
     -0.376 -0.7713E-04  0.1000E+02
     -0.201 -0.1246E-01  0.9998E+01
     -0.025 -0.3318E+00  0.9940E+01
      0.150  0.6343E-01  0.9951E+01
      0.326  0.1114E+02  0.1191E+02
      0.501  0.1198E+02  0.1401E+02
      0.677  0.3603E+00  0.1407E+02
      0.852 -0.3804E+00  0.1400E+02
      1.028 -0.1628E-01  0.1400E+02
      1.203 -0.1125E-03  0.1400E+02
      1.379 -0.1394E-03  0.1400E+02
      1.554 -0.1537E-01  0.1400E+02
      1.730 -0.2546E+00  0.1395E+02
      1.905  0.6924E+00  0.1407E+02
      2.081  0.6876E+01  0.1528E+02
      2.256  0.4433E+01  0.1606E+02
      2.431 -0.2174E+00  0.1602E+02
      2.607 -0.1128E+00  0.1600E+02
      2.782 -0.3096E-02  0.1600E+02
      2.958 -0.1466E-04  0.1600E+02
      3.133 -0.1361E-07  0.1600E+02
      3.309 -0.2579E-11  0.1600E+02
      3.484  0.0000E+00  0.1600E+02
      3.660  0.0000E+00  0.1600E+02
      3.835  0.0000E+00  0.1600E+02
      4.011  0.0000E+00  0.1600E+02
      4.186  0.0000E+00  0.1600E+02
      4.362  0.0000E+00  0.1600E+02
      4.537  0.0000E+00  0.1600E+02
      4.713  0.0000E+00  0.1600E+02
      4.888  0.0000E+00  0.1600E+02
      5.063  0.0000E+00  0.1600E+02
      5.239 -0.7175E-32  0.1600E+02
      5.414 -0.1507E-25  0.1600E+02
      5.590 -0.6710E-20  0.1600E+02
      5.765 -0.6308E-15  0.1600E+02
      5.941 -0.1202E-10  0.1600E+02
      6.116 -0.4876E-07  0.1600E+02
      6.292 -0.4018E-04  0.1600E+02
      6.467 -0.6415E-02  0.1600E+02
      6.643 -0.1685E+00  0.1597E+02
      6.818  0.4635E-01  0.1598E+02
      6.994  0.5616E+01  0.1696E+02
      7.169  0.5944E+01  0.1801E+02
      7.345  0.1626E+00  0.1803E+02
      7.520 -0.1875E+00  0.1800E+02
      7.695 -0.7999E-02  0.1800E+02
      7.871 -0.1149E-01  0.1800E+02
      8.046 -0.2238E+00  0.1796E+02
      8.222  0.4234E+00  0.1803E+02
      8.397  0.6488E+01  0.1917E+02
      8.573  0.4982E+01  0.2005E+02
      8.748 -0.1194E+00  0.2002E+02
      8.924 -0.1365E+00  0.2000E+02
      9.099 -0.4337E-02  0.2000E+02
      9.275 -0.2331E-04  0.2000E+02
      9.450 -0.5651E-07  0.2000E+02
      9.626 -0.3341E-04  0.2000E+02
      9.801 -0.6819E-02  0.2000E+02
      9.977 -0.2405E+00  0.1996E+02
     10.152 -0.4798E+00  0.1987E+02
     10.327  0.8894E+01  0.2143E+02
     10.503  0.1745E+02  0.2450E+02
     10.678  0.8404E+01  0.2597E+02
     10.854  0.5019E+00  0.2606E+02
     11.029 -0.3114E+00  0.2600E+02
     11.205 -0.2042E-01  0.2600E+02
     11.380 -0.2074E-03  0.2600E+02
     11.556 -0.4012E-06  0.2600E+02
     11.731 -0.1564E-09  0.2600E+02
     11.907 -0.1265E-13  0.2600E+02
     12.082  0.0000E+00  0.2600E+02
     12.258  0.0000E+00  0.2600E+02
     12.433 -0.2887E-26  0.2600E+02
     12.608 -0.1547E-20  0.2600E+02
     12.784 -0.1752E-15  0.2600E+02
     12.959 -0.4035E-11  0.2600E+02
     13.135 -0.1986E-07  0.2600E+02
     13.310 -0.2008E-04  0.2600E+02
     13.486 -0.4048E-02  0.2600E+02
     13.661 -0.1481E+00  0.2597E+02
     13.837 -0.4457E+00  0.2590E+02
     14.012  0.5810E+01  0.2691E+02
     14.188  0.1385E+02  0.2934E+02
     14.363  0.4366E+01  0.3011E+02
     14.539 -0.5223E+00  0.3002E+02
     14.714 -0.1037E+00  0.3000E+02
     14.890 -0.2288E-02  0.3000E+02
     15.065 -0.7048E-02  0.3000E+02
     15.240 -0.2457E+00  0.2996E+02
     15.416 -0.4849E+00  0.2987E+02
     15.591  0.9066E+01  0.3146E+02
     15.767  0.1796E+02  0.3461E+02
     15.942  0.7911E+01  0.3600E+02
     16.118 -0.5919E-01  0.3599E+02
     16.293  0.4001E+01  0.3669E+02
     16.469  0.6934E+01  0.3791E+02
     16.644  0.4839E+00  0.3799E+02
     16.820  0.8307E+00  0.3814E+02
     16.995  0.7240E+01  0.3941E+02
     17.171  0.3747E+01  0.4007E+02
     17.346 -0.2961E+00  0.4002E+02
     17.522 -0.8748E-01  0.4000E+02
     17.697 -0.2010E-02  0.4000E+02
     17.872 -0.8142E-05  0.4000E+02
     18.048 -0.7806E-06  0.4000E+02
     18.223 -0.3428E-03  0.4000E+02
     18.399 -0.2833E-01  0.3999E+02
     18.574 -0.3157E+00  0.3994E+02
     18.750  0.1454E+01  0.4019E+02
     18.925  0.7439E+01  0.4150E+02
     19.101  0.2769E+01  0.4199E+02
     19.276  0.6067E+00  0.4209E+02
     19.452  0.1305E+02  0.4438E+02
     19.627  0.9768E+01  0.4610E+02
     19.803 -0.2791E+00  0.4605E+02
     19.978 -0.2640E+00  0.4600E+02
     20.154 -0.8170E-02  0.4600E+02
     20.329 -0.4292E-04  0.4600E+02
     20.504 -0.4402E-07  0.4600E+02
     20.680 -0.9702E-11  0.4600E+02
     20.855 -0.3495E-08  0.4600E+02
     21.031 -0.4956E-05  0.4600E+02
     21.206 -0.1391E-02  0.4600E+02
     21.382 -0.6990E-01  0.4599E+02
     21.557 -0.3314E+00  0.4593E+02
     21.733  0.3191E+01  0.4649E+02
     21.908  0.7475E+01  0.4780E+02
     22.084  0.1482E+01  0.4806E+02
     22.259 -0.3173E+00  0.4801E+02
     22.435 -0.2886E-01  0.4800E+02
     22.610 -0.3524E-03  0.4800E+02
     22.786 -0.8025E-06  0.4800E+02
     22.961 -0.3664E-09  0.4800E+02
     23.136 -0.3543E-13  0.4800E+02
     23.312  0.0000E+00  0.4800E+02
     23.487  0.0000E+00  0.4800E+02
     23.663  0.0000E+00  0.4800E+02
     23.838  0.0000E+00  0.4800E+02
     24.014  0.0000E+00  0.4800E+02
     24.189  0.0000E+00  0.4800E+02
