    2    2    1    1
  0.3200000E+02  0.4000000E-09  0.4000000E-09  0.4000000E-09  0.5000000E-15
  1.000000000000000E-004
  CAR 
 unknown system                          
     10      1     24
 
  0.0000000E+00  0.0000000E+00  0.0000000E+00  0.1000000E+01
    1      -26.057778   1.000000
    2      -11.454302   1.000000
    3       -8.776052   1.000000
    4       -8.776052   1.000000
    5       -7.578831   1.000000
    6        0.331504   0.000000
    7        0.331504   0.000000
    8        2.046868   0.000000
    9        6.997985   0.000000
   10        8.376937   0.000000
   11       10.357401   0.000000
   12       10.357401   0.000000
   13       10.549258   0.000000
   14       14.037520   0.000000
   15       14.139965   0.000000
   16       15.620157   0.000000
   17       15.620157   0.000000
   18       15.799350   0.000000
   19       16.330624   0.000000
   20       16.944955   0.000000
   21       18.862369   0.000000
   22       19.428890   0.000000
   23       19.428890   0.000000
   24       21.796515   0.000000
