       N       E                     dE             d eps       ncg     rms          rms(c)
DAV:   1    -0.153517353192E+02   -0.15352E+02   -0.28245E-04    24   0.356E-02    0.323E-02
DAV:   2    -0.153517186869E+02    0.16632E-04   -0.37336E-04    24   0.403E-02
   1 F= -.15351719E+02 E0= -.15355584E+02  d E =0.115958E-01
