 vasp.5.4.1 05Feb16 (build Apr 25 2018 11:37:45) complex                        
  
 executed on             LinuxIFC date 2023.01.29  13:38:49
 running on   24 total cores
 distrk:  each k-point on   24 cores,    1 groups
 distr:  one band on NCORES_PER_BAND=   1 cores,   24 groups


--------------------------------------------------------------------------------------------------------


 INCAR:
 POTCAR:    PAW_PBE C 08Apr2002                   
 POTCAR:    PAW_PBE O 08Apr2002                   

 ----------------------------------------------------------------------------- 
|                                                                             |
|           W    W    AA    RRRRR   N    N  II  N    N   GGGG   !!!           |
|           W    W   A  A   R    R  NN   N  II  NN   N  G    G  !!!           |
|           W    W  A    A  R    R  N N  N  II  N N  N  G       !!!           |
|           W WW W  AAAAAA  RRRRR   N  N N  II  N  N N  G  GGG   !            |
|           WW  WW  A    A  R   R   N   NN  II  N   NN  G    G                |
|           W    W  A    A  R    R  N    N  II  N    N   GGGG   !!!           |
|                                                                             |
|      For optimal performance we recommend to set                            |
|        NCORE= 4 - approx SQRT( number of cores)                             |
|      NCORE specifies how many cores store one orbital (NPAR=cpu/NCORE).     |
|      This setting can  greatly improve the performance of VASP for DFT.     |
|      The default, NPAR=number of cores might be grossly inefficient         |
|      on modern multi-core architectures or massively parallel machines.     |
|      Do your own testing !!!!                                               |
|      Unfortunately you need to use the default for GW and RPA calculations. |
|      (for HF NCORE is supported but not extensively tested yet)             |
|                                                                             |
 ----------------------------------------------------------------------------- 

 POTCAR:    PAW_PBE C 08Apr2002                   
   VRHFIN =C: s2p2                                                              
   LEXCH  = PE                                                                  
   EATOM  =   147.1560 eV,   10.8157 Ry                                         
                                                                                
   TITEL  = PAW_PBE C 08Apr2002                                                 
   LULTRA =        F    use ultrasoft PP ?                                      
   IUNSCR =        1    unscreen: 0-lin 1-nonlin 2-no                           
   RPACOR =    1.200    partial core radius                                     
   POMASS =   12.011; ZVAL   =    4.000    mass and valenz                      
   RCORE  =    1.500    outmost cutoff radius                                   
   RWIGS  =    1.630; RWIGS  =    0.863    wigner-seitz radius (au A)           
   ENMAX  =  400.000; ENMIN  =  300.000 eV                                      
   ICORE  =        2    local potential                                         
   LCOR   =        T    correct aug charges                                     
   LPAW   =        T    paw PP                                                  
   EAUG   =  644.873                                                            
   DEXC   =    0.000                                                            
   RMAX   =    1.529    core radius for proj-oper                               
   RAUG   =    1.300    factor for augmentation sphere                          
   RDEP   =    1.501    radius for radial grids                                 
   RDEPT  =    1.300    core radius for aug-charge                              
                                                                                
   Atomic configuration                                                         
    4 entries                                                                   
     n  l   j            E        occ.                                          
     1  0  0.50      -273.3789   2.0000                                         
     2  0  0.50       -13.7508   2.0000                                         
     2  1  0.50        -5.2854   2.0000                                         
     3  2  1.50        -5.4423   0.0000                                         
   Description                                                                  
     l       E           TYP  RCUT    TYP  RCUT                                 
     0    -13.7508458     23  1.200                                             
     0     -8.2022199     23  1.200                                             
     1     -5.2854383     23  1.500                                             
     1     34.0145650     23  1.500                                             
     2     -5.4423304      7  1.500                                             
  local pseudopotential read in
  partial core-charges read in
  partial kinetic energy density read in
  atomic valenz-charges read in
  non local Contribution for L=           0  read in
    real space projection operators read in
  non local Contribution for L=           0  read in
    real space projection operators read in
  non local Contribution for L=           1  read in
    real space projection operators read in
  non local Contribution for L=           1  read in
    real space projection operators read in
    PAW grid and wavefunctions read in
 
   number of l-projection  operators is LMAX  =           4
   number of lm-projection operators is LMMAX =           8
 
 POTCAR:    PAW_PBE O 08Apr2002                   
   VRHFIN =O: s2p4                                                              
   LEXCH  = PE                                                                  
   EATOM  =   432.3788 eV,   31.7789 Ry                                         
                                                                                
   TITEL  = PAW_PBE O 08Apr2002                                                 
   LULTRA =        F    use ultrasoft PP ?                                      
   IUNSCR =        1    unscreen: 0-lin 1-nonlin 2-no                           
   RPACOR =    1.200    partial core radius                                     
   POMASS =   16.000; ZVAL   =    6.000    mass and valenz                      
   RCORE  =    1.520    outmost cutoff radius                                   
   RWIGS  =    1.550; RWIGS  =    0.820    wigner-seitz radius (au A)           
   ENMAX  =  400.000; ENMIN  =  300.000 eV                                      
   ICORE  =        2    local potential                                         
   LCOR   =        T    correct aug charges                                     
   LPAW   =        T    paw PP                                                  
   EAUG   =  605.392                                                            
   DEXC   =    0.000                                                            
   RMAX   =    1.553    core radius for proj-oper                               
   RAUG   =    1.300    factor for augmentation sphere                          
   RDEP   =    1.550    radius for radial grids                                 
   RDEPT  =    1.329    core radius for aug-charge                              
                                                                                
   Atomic configuration                                                         
    4 entries                                                                   
     n  l   j            E        occ.                                          
     1  0  0.50      -514.6923   2.0000                                         
     2  0  0.50       -23.9615   2.0000                                         
     2  1  0.50        -9.0305   4.0000                                         
     3  2  1.50        -9.5241   0.0000                                         
   Description                                                                  
     l       E           TYP  RCUT    TYP  RCUT                                 
     0    -23.9615318     23  1.200                                             
     0     -9.5240782     23  1.200                                             
     1     -9.0304911     23  1.520                                             
     1      8.1634956     23  1.520                                             
     2     -9.5240782      7  1.500                                             
  local pseudopotential read in
  partial core-charges read in
  partial kinetic energy density read in
  kinetic energy density of atom read in
  atomic valenz-charges read in
  non local Contribution for L=           0  read in
    real space projection operators read in
  non local Contribution for L=           0  read in
    real space projection operators read in
  non local Contribution for L=           1  read in
    real space projection operators read in
  non local Contribution for L=           1  read in
    real space projection operators read in
    PAW grid and wavefunctions read in
 
   number of l-projection  operators is LMAX  =           4
   number of lm-projection operators is LMMAX =           8
 
  PAW_PBE C 08Apr2002                   :
 energy of atom  1       EATOM= -147.1560
 kinetic energy error for atom=    0.0854 (will be added to EATOM!!)
  PAW_PBE O 08Apr2002                   :
 energy of atom  2       EATOM= -432.3788
 kinetic energy error for atom=    0.3782 (will be added to EATOM!!)
 
 
 POSCAR:  C  O                                   
  positions in cartesian coordinates
  No initial velocities read in
 exchange correlation table for  LEXCH =        8
   RHO(1)=    0.500       N(1)  =     2000
   RHO(2)=  100.500       N(2)  =     4000

 VTST: version 3.2, (02/03/18)

 CHAIN: initializing optimizer
 
 OPT: Using VASP Dynamics algorithm
 CHAIN: Read ICHAIN            0
 
 POSCAR:  C  O                                   
  positions in cartesian coordinates
  No initial velocities read in
 


--------------------------------------------------------------------------------------------------------


 ion  position               nearest neighbor table
   1  0.350  0.500  0.500-   2 1.20
   2  0.650  0.500  0.500-   1 1.20
 
  LATTYP: Found a simple cubic cell.
 ALAT       =     4.0000000000
  
  Lattice vectors:
  
 A1 = (   4.0000000000,   0.0000000000,   0.0000000000)
 A2 = (   0.0000000000,   4.0000000000,   0.0000000000)
 A3 = (   0.0000000000,   0.0000000000,   4.0000000000)


Analysis of symmetry for initial positions (statically):
=====================================================================
 Subroutine PRICEL returns:
 Original cell was already a primitive cell.
 

 Routine SETGRP: Setting up the symmetry group for a 
 simple cubic supercell.


 Subroutine GETGRP returns: Found  8 space group operations
 (whereof  8 operations were pure point group operations)
 out of a pool of 48 trial point group operations.


The static configuration has the point symmetry C_4v.


Analysis of symmetry for dynamics (positions and initial velocities):
=====================================================================
 Subroutine PRICEL returns:
 Original cell was already a primitive cell.
 

 Routine SETGRP: Setting up the symmetry group for a 
 simple cubic supercell.


 Subroutine GETGRP returns: Found  8 space group operations
 (whereof  8 operations were pure point group operations)
 out of a pool of 48 trial point group operations.


The dynamic configuration has the point symmetry C_4v.


 Subroutine INISYM returns: Found  8 space group operations
 (whereof  8 operations are pure point group operations),
 and found     1 'primitive' translations

 
 
 KPOINTS: KPOINTS created by Atomic Simulation Env

Automatic generation of k-mesh.
Space group operators:
 irot       det(A)        alpha          n_x          n_y          n_z        tau_x        tau_y        tau_z
    1     1.000000     0.000000     1.000000     0.000000     0.000000     0.000000     0.000000     0.000000
    2    -1.000000   180.000000     0.000000     0.707107     0.707107     0.000000     0.000000     0.000000
    3    -1.000000   180.000000     0.000000     0.000000     1.000000     0.000000     0.000000     0.000000
    4     1.000000    90.000000    -1.000000     0.000000     0.000000     0.000000     0.000000     0.000000
    5     1.000000   180.000000     1.000000     0.000000     0.000000     0.000000     0.000000     0.000000
    6     1.000000    90.000000     1.000000     0.000000     0.000000     0.000000     0.000000     0.000000
    7    -1.000000   180.000000     0.000000     1.000000     0.000000     0.000000     0.000000     0.000000
    8    -1.000000   180.000000     0.000000    -0.707107     0.707107     0.000000     0.000000     0.000000
 
 Subroutine IBZKPT returns following result:
 ===========================================
 
 Found      1 irreducible k-points:
 
 Following reciprocal coordinates:
            Coordinates               Weight
  0.000000  0.000000  0.000000      1.000000
 
 Following cartesian coordinates:
            Coordinates               Weight
  0.000000  0.000000  0.000000      1.000000
 


--------------------------------------------------------------------------------------------------------




 Dimension of arrays:
   k-points           NKPTS =      1   k-points in BZ     NKDIM =      1   number of bands    NBANDS=     24
   number of dos      NEDOS =    301   number of ions     NIONS =      2
   non local maximal  LDIM  =      4   non local SUM 2l+1 LMDIM =      8
   total plane-waves  NPLWV =   5832
   max r-space proj   IRMAX =      1   max aug-charges    IRDMAX=   1382
   dimension x,y,z NGX =    18 NGY =   18 NGZ =   18
   dimension x,y,z NGXF=    36 NGYF=   36 NGZF=   36
   support grid    NGXF=    36 NGYF=   36 NGZF=   36
   ions per type =               1   1
 NGX,Y,Z   is equivalent  to a cutoff of   7.48,  7.48,  7.48 a.u.
 NGXF,Y,Z  is equivalent  to a cutoff of  14.96, 14.96, 14.96 a.u.


 I would recommend the setting:
   dimension x,y,z NGX =    18 NGY =   18 NGZ =   18
 SYSTEM =  unknown system                          
 POSCAR =   C  O                                   

 Startparameter for this run:
   NWRITE =      2    write-flag & timer
   PREC   = normal    normal or accurate (medium, high low for compatibility)
   ISTART =      1    job   : 0-new  1-cont  2-samecut
   ICHARG =      0    charge: 1-file 2-atom 10-const
   ISPIN  =      1    spin polarized calculation?
   LNONCOLLINEAR =      F non collinear calculations
   LSORBIT =      F    spin-orbit coupling
   INIWAV =      1    electr: 0-lowe 1-rand  2-diag
   LASPH  =      F    aspherical Exc in radial PAW
   METAGGA=      F    non-selfconsistent MetaGGA calc.

 Electronic Relaxation 1
   ENCUT  =  350.0 eV  25.72 Ry    5.07 a.u.   6.10  6.10  6.10*2*pi/ulx,y,z
   ENINI  =  350.0     initial cutoff
   ENAUG  =  644.9 eV  augmentation charge cutoff
   NELM   =     60;   NELMIN=  2; NELMDL=  0     # of ELM steps 
   EDIFF  = 0.1E-03   stopping-criterion for ELM
   LREAL  =      F    real-space projection
   NLSPLINE    = F    spline interpolate recip. space projectors
   LCOMPAT=      F    compatible to vasp.4.4
   GGA_COMPAT  = T    GGA compatible to vasp.4.4-vasp.4.6
   LMAXPAW     = -100 max onsite density
   LMAXMIX     =    2 max onsite mixed and CHGCAR
   VOSKOWN=      0    Vosko Wilk Nusair interpolation
   ROPT   =    0.00000   0.00000
 Ionic relaxation
   EDIFFG = 0.1E-02   stopping-criterion for IOM
   NSW    =      0    number of steps for IOM
   NBLOCK =      1;   KBLOCK =      1    inner block; outer block 
   IBRION =     -1    ionic relax: 0-MD 1-quasi-New 2-CG
   NFREE  =      0    steps in history (QN), initial steepest desc. (CG)
   ISIF   =      2    stress and relaxation
   IWAVPR =     10    prediction:  0-non 1-charg 2-wave 3-comb
   ISYM   =      2    0-nonsym 1-usesym 2-fastsym
   LCORR  =      T    Harris-Foulkes like correction to forces

   POTIM  = 0.5000    time-step for ionic-motion
   TEIN   =    0.0    initial temperature
   TEBEG  =    0.0;   TEEND  =   0.0 temperature during run
   SMASS  =  -3.00    Nose mass-parameter (am)
   estimated Nose-frequenzy (Omega)   =  0.10E-29 period in steps =****** mass=  -0.366E-27a.u.
   SCALEE = 1.0000    scale energy and forces
   NPACO  =    256;   APACO  = 16.0  distance and # of slots for P.C.
   PSTRESS=    0.0 pullay stress

  Mass of Ions in am
   POMASS =  12.01 16.00
  Ionic Valenz
   ZVAL   =   4.00  6.00
  Atomic Wigner-Seitz radii
   RWIGS  =  -1.00 -1.00
  virtual crystal weights 
   VCA    =   1.00  1.00
   NELECT =      10.0000    total number of electrons
   NUPDOWN=      -1.0000    fix difference up-down

 DOS related values:
   EMIN   =  10.00;   EMAX   =-10.00  energy-range for DOS
   EFERMI =   0.00
   ISMEAR =     1;   SIGMA  =   0.20  broadening in eV -4-tet -1-fermi 0-gaus

 Electronic relaxation 2 (details)
   IALGO  =     38    algorithm
   LDIAG  =      T    sub-space diagonalisation (order eigenvalues)
   LSUBROT=      F    optimize rotation matrix (better conditioning)
   TURBO    =      0    0=normal 1=particle mesh
   IRESTART =      0    0=no restart 2=restart with 2 vectors
   NREBOOT  =      0    no. of reboots
   NMIN     =      0    reboot dimension
   EREF     =   0.00    reference energy to select bands
   IMIX   =      4    mixing-type and parameters
     AMIX     =   0.40;   BMIX     =  1.00
     AMIX_MAG =   1.60;   BMIX_MAG =  1.00
     AMIN     =   0.10
     WC   =   100.;   INIMIX=   1;  MIXPRE=   1;  MAXMIX= -45

 Intra band minimization:
   WEIMIN = 0.0000     energy-eigenvalue tresh-hold
   EBREAK =  0.10E-05  absolut break condition
   DEPER  =   0.30     relativ break condition  

   TIME   =   0.40     timestep for ELM

  volume/ion in A,a.u.               =      32.00       215.95
  Fermi-wavevector in a.u.,A,eV,Ry     =   0.881755  1.666276 10.578431  0.777493
  Thomas-Fermi vector in A             =   2.002295
 
 Write flags
   LWAVE  =      T    write WAVECAR
   LCHARG =      T    write CHGCAR
   LVTOT  =      F    write LOCPOT, total local potential
   LVHAR  =      F    write LOCPOT, Hartree potential only
   LELF   =      F    write electronic localiz. function (ELF)
   LORBIT =      0    0 simple, 1 ext, 2 COOP (PROOUT)


 Dipole corrections
   LMONO  =      F    monopole corrections only (constant potential shift)
   LDIPOL =      F    correct potential (dipole corrections)
   IDIPOL =      0    1-x, 2-y, 3-z, 4-all directions 
   EPSILON=  1.0000000 bulk dielectric constant

 Exchange correlation treatment:
   GGA     =    PE    GGA type
   LEXCH   =     8    internal setting for exchange type
   VOSKOWN=      0    Vosko Wilk Nusair interpolation
   LHFCALC =     F    Hartree Fock is set to
   LHFONE  =     F    Hartree Fock one center treatment
   AEXX    =    0.0000 exact exchange contribution

 Linear response parameters
   LEPSILON=     F    determine dielectric tensor
   LRPA    =     F    only Hartree local field effects (RPA)
   LNABLA  =     F    use nabla operator in PAW spheres
   LVEL    =     F    velocity operator in full k-point grid
   LINTERFAST=   F  fast interpolation
   KINTER  =     0    interpolate to denser k-point grid
   CSHIFT  =0.1000    complex shift for real part using Kramers Kronig
   OMEGAMAX=  -1.0    maximum frequency
   DEG_THRESHOLD= 0.2000000E-02 threshold for treating states as degnerate
   RTIME   =    0.100 relaxation time in fs

 Orbital magnetization related:
   ORBITALMAG=     F  switch on orbital magnetization
   LCHIMAG   =     F  perturbation theory with respect to B field
   DQ        =  0.001000  dq finite difference perturbation B field



--------------------------------------------------------------------------------------------------------


 Static calculation
 charge density and potential will be updated during run
 non-spin polarized calculation
 Variant of blocked Davidson
 Davidson routine will perform the subspace rotation
 perform sub-space diagonalisation
    after iterative eigenvector-optimisation
 modified Broyden-mixing scheme, WC =      100.0
 initial mixing is a Kerker type mixing with AMIX =  0.4000 and BMIX =      1.0000
 Hartree-type preconditioning will be used
 using additional bands           19
 reciprocal scheme for non local part
 use partial core corrections
 calculate Harris-corrections to forces 
   (improved forces if not selfconsistent)
 use gradient corrections 
 use of overlap-Matrix (Vanderbilt PP)
 Methfessel and Paxton  Order N= 1 SIGMA  =   0.20


--------------------------------------------------------------------------------------------------------


  energy-cutoff  :      350.00
  volume of cell :       64.00
      direct lattice vectors                 reciprocal lattice vectors
     4.000000000  0.000000000  0.000000000     0.250000000  0.000000000  0.000000000
     0.000000000  4.000000000  0.000000000     0.000000000  0.250000000  0.000000000
     0.000000000  0.000000000  4.000000000     0.000000000  0.000000000  0.250000000

  length of vectors
     4.000000000  4.000000000  4.000000000     0.250000000  0.250000000  0.250000000


 
 old parameters found on file WAVECAR:
  energy-cutoff  :      350.00
  volume of cell :       64.00
      direct lattice vectors                 reciprocal lattice vectors
     4.000000000  0.000000000  0.000000000     0.250000000  0.000000000  0.000000000
     0.000000000  4.000000000  0.000000000     0.000000000  0.250000000  0.000000000
     0.000000000  0.000000000  4.000000000     0.000000000  0.000000000  0.250000000

  length of vectors

 
 k-points in units of 2pi/SCALE and weight: KPOINTS created by Atomic Simulation Env
   0.00000000  0.00000000  0.00000000       1.000
 
 k-points in reciprocal lattice and weights: KPOINTS created by Atomic Simulation Env
   0.00000000  0.00000000  0.00000000       1.000
 
 position of ions in fractional coordinates (direct lattice) 
   0.35000000  0.50000000  0.50000000
   0.65000000  0.50000000  0.50000000
 
 position of ions in cartesian coordinates  (Angst):
   1.40000000  2.00000000  2.00000000
   2.60000000  2.00000000  2.00000000
 


--------------------------------------------------------------------------------------------------------


 k-point  1 :   0.0000 0.0000 0.0000  plane waves:     949

 maximum and minimum number of plane-waves per node :       949      949

 maximum number of plane-waves:       949
 maximum index in each direction: 
   IXMAX=    6   IYMAX=    6   IZMAX=    6
   IXMIN=   -6   IYMIN=   -6   IZMIN=   -6

 WARNING: aliasing errors must be expected set NGX to  26 to avoid them
 WARNING: aliasing errors must be expected set NGY to  26 to avoid them
 WARNING: aliasing errors must be expected set NGZ to  26 to avoid them
 aliasing errors are usually negligible using standard VASP settings
 and one can safely disregard these warnings

 serial   3D FFT for wavefunctions
 parallel 3D FFT for charge:
    minimum data exchange during FFTs selected (reduces bandwidth)


 total amount of memory used by VASP on root node    30676. kBytes
========================================================================

   base      :      30000. kBytes
   nonl-proj :        153. kBytes
   fftplans  :        113. kBytes
   grid      :        389. kBytes
   one-center:          6. kBytes
   wavefun   :         15. kBytes
 
     INWAV:  cpu time    0.0032: real time    0.0033
 Broyden mixing: mesh for mixing (old mesh)
   NGX = 13   NGY = 13   NGZ = 13
  (NGX  = 36   NGY  = 36   NGZ  = 36)
  gives a total of   2197 points

 charge density for first step will be calculated from the start-wavefunctions


--------------------------------------------------------------------------------------------------------


 Maximum index for augmentation-charges          137 (set IRDMAX)


--------------------------------------------------------------------------------------------------------


 initial charge from wavefunction
 First call to EWALD:  gamma=   0.443
 Maximum number of real-space cells 3x 3x 3
 Maximum number of reciprocal cells 3x 3x 3

 FEWALD executed in parallel
    FEWALD:  cpu time    0.0015: real time    0.0015


----------------------------------------- Iteration    1(   1)  ---------------------------------------


    POTLOK:  cpu time    0.0036: real time    0.0037
    SETDIJ:  cpu time    0.0016: real time    0.0016
     EDDAV:  cpu time    0.0067: real time    0.0067
       DOS:  cpu time    0.0004: real time    0.0004
    CHARGE:  cpu time    0.0015: real time    0.0015
    MIXING:  cpu time    0.0002: real time    0.0003
    --------------------------------------------
      LOOP:  cpu time    0.0157: real time    0.0172

 eigenvalue-minimisations  :    24
 total energy-change (2. order) :-0.1535174E+02  (-0.2824518E-04)
 number of electron       9.9999970 magnetization 
 augmentation part        0.5987863 magnetization 

 Broyden mixing:
  rms(total) = 0.32265E-02    rms(broyden)= 0.32241E-02
  rms(prec ) = 0.81270E-02
  weight for this iteration     100.00

 Free energy of the ion-electron system (eV)
  ---------------------------------------------------
  alpha Z        PSCENC =         6.82746172
  Ewald energy   TEWEN  =      -204.19401249
  -Hartree energ DENC   =      -309.41141962
  -exchange      EXHF   =         0.00000000
  -V(xc)+E(xc)   XCENC  =        39.88113793
  PAW double counting   =       772.96395716     -775.16211184
  entropy T*S    EENTRO =         0.01159581
  eigenvalues    EBANDS =      -125.33957445
  atomic energy  EATOM  =       579.07123046
  Solvation  Ediel_sol  =         0.00000000
  ---------------------------------------------------
  free energy    TOTEN  =       -15.35173532 eV

  energy without entropy =      -15.36333113  energy(sigma->0) =      -15.35560059


--------------------------------------------------------------------------------------------------------




----------------------------------------- Iteration    1(   2)  ---------------------------------------


    POTLOK:  cpu time    0.0021: real time    0.0021
    SETDIJ:  cpu time    0.0013: real time    0.0014
     EDDAV:  cpu time    0.0033: real time    0.0033
       DOS:  cpu time    0.0002: real time    0.0002
    --------------------------------------------
      LOOP:  cpu time    0.0080: real time    0.0087

 eigenvalue-minimisations  :    24
 total energy-change (2. order) : 0.1663231E-04  (-0.3733608E-04)
 number of electron       9.9999970 magnetization 
 augmentation part        0.5987863 magnetization 

 Free energy of the ion-electron system (eV)
  ---------------------------------------------------
  alpha Z        PSCENC =         6.82746172
  Ewald energy   TEWEN  =      -204.19401249
  -Hartree energ DENC   =      -309.46717299
  -exchange      EXHF   =         0.00000000
  -V(xc)+E(xc)   XCENC  =        39.88411746
  PAW double counting   =       773.05705275     -775.25596250
  entropy T*S    EENTRO =         0.01159581
  eigenvalues    EBANDS =      -125.28602891
  atomic energy  EATOM  =       579.07123046
  Solvation  Ediel_sol  =         0.00000000
  ---------------------------------------------------
  free energy    TOTEN  =       -15.35171869 eV

  energy without entropy =      -15.36331450  energy(sigma->0) =      -15.35558396


--------------------------------------------------------------------------------------------------------




 average (electrostatic) potential at core
  the test charge radii are     0.6991  0.7215
  (the norm of the test charge is              1.0000)
       1 -59.8612       2 -81.0817
 
 
 
 E-fermi :  -7.4105     XC(G=0):  -5.3325     alpha+bet : -2.7361


 k-point     1 :       0.0000    0.0000    0.0000
  band No.  band energies     occupation 
      1     -26.0578      2.00000
      2     -11.4543      2.00000
      3      -8.7761      2.00000
      4      -8.7761      2.00000
      5      -7.5788      2.00000
      6       0.3315      0.00000
      7       0.3315      0.00000
      8       2.0469      0.00000
      9       6.9980      0.00000
     10       8.3769      0.00000
     11      10.3574      0.00000
     12      10.3574      0.00000
     13      10.5493      0.00000
     14      14.0375      0.00000
     15      14.1400      0.00000
     16      15.6202      0.00000
     17      15.6202      0.00000
     18      15.7993      0.00000
     19      16.3306      0.00000
     20      16.9450      0.00000
     21      18.8624      0.00000
     22      19.4289      0.00000
     23      19.4289      0.00000
     24      21.7965      0.00000


--------------------------------------------------------------------------------------------------------


 soft charge-density along one line, spin component           1
         0         1         2         3         4         5         6         7         8         9
 total charge-density along one line
 
 pseudopotential strength for first ion, spin component:           1
 10.287  13.682   0.000   0.000   0.018  -0.000  -0.000  -0.060
 13.682  18.197   0.000   0.000   0.024  -0.000  -0.000  -0.080
  0.000   0.000  -4.458   0.000  -0.000   8.737  -0.000   0.000
  0.000   0.000   0.000  -4.458  -0.000  -0.000   8.737   0.000
  0.018   0.024  -0.000  -0.000  -4.459   0.000   0.000   8.730
 -0.000  -0.000   8.737  -0.000   0.000 -19.266   0.000  -0.000
 -0.000  -0.000  -0.000   8.737   0.000   0.000 -19.266  -0.000
 -0.060  -0.080   0.000   0.000   8.730  -0.000  -0.000 -19.235
 total augmentation occupancy for first ion, spin component:           1
  5.482  -2.299   0.000  -0.000   1.598   0.000   0.000   0.296
 -2.299   1.415  -0.000   0.000  -1.244   0.000   0.000  -0.183
  0.000  -0.000   0.800   0.000   0.000   0.058   0.000  -0.000
 -0.000   0.000   0.000   0.800  -0.000   0.000   0.058  -0.000
  1.598  -1.244   0.000  -0.000   2.004   0.000   0.000   0.209
  0.000   0.000   0.058   0.000   0.000   0.004   0.000   0.000
  0.000   0.000   0.000   0.058   0.000   0.000   0.004   0.000
  0.296  -0.183  -0.000  -0.000   0.209   0.000   0.000   0.027


------------------------ aborting loop because EDIFF is reached ----------------------------------------


    CHARGE:  cpu time    0.0068: real time    0.0069
    FORLOC:  cpu time    0.0001: real time    0.0001
    FORNL :  cpu time    0.0004: real time    0.0004
    STRESS:  cpu time    0.0039: real time    0.0039
    FORCOR:  cpu time    0.0017: real time    0.0018
    FORHAR:  cpu time    0.0004: real time    0.0005
    MIXING:  cpu time    0.0002: real time    0.0002
    OFIELD:  cpu time    0.0000: real time    0.0000

  FORCE on cell =-STRESS in cart. coord.  units (eV):
  Direction    XX          YY          ZZ          XY          YZ          ZX
  --------------------------------------------------------------------------------------
  Alpha Z     6.82746     6.82746     6.82746
  Ewald     148.55515  -176.37462  -176.37462    -0.00000     0.00000    -0.00000
  Hartree   191.00785    59.18998    59.18998    -0.00000    -0.00000    -0.00000
  E(xc)     -42.22171   -43.45851   -43.45851     0.00000     0.00000     0.00000
  Local    -460.42614   -25.73776   -25.73776     0.00000     0.00000    -0.00000
  n-local   -27.49231   -18.17749   -18.17746    -0.00000     0.00000     0.00000
  augment     5.62137     6.04818     6.04818    -0.00000     0.00000    -0.00000
  Kinetic   167.67444   189.54339   189.54312    -0.00000     0.00005    -0.00000
  Fock        0.00000     0.00000     0.00000     0.00000     0.00000     0.00000
  -------------------------------------------------------------------------------------
  Total     -10.45388    -2.13949    -2.13949     0.00000    -0.00000     0.00000
  in kB    -261.70262   -53.55996   -53.55996     0.00000    -0.00000     0.00000
  external pressure =     -122.94 kB  Pullay stress =        0.00 kB


 VOLUME and BASIS-vectors are now :
 -----------------------------------------------------------------------------
  energy-cutoff  :      350.00
  volume of cell :       64.00
      direct lattice vectors                 reciprocal lattice vectors
     4.000000000  0.000000000  0.000000000     0.250000000  0.000000000  0.000000000
     0.000000000  4.000000000  0.000000000     0.000000000  0.250000000  0.000000000
     0.000000000  0.000000000  4.000000000     0.000000000  0.000000000  0.250000000

  length of vectors
     4.000000000  4.000000000  4.000000000     0.250000000  0.250000000  0.250000000


 FORCES acting on ions
    electron-ion (+dipol)            ewald-force                    non-local-force                 convergence-correction
 -----------------------------------------------------------------------------------------------
   0.186E+03 -.974E-13 -.329E-04   -.205E+03 0.165E-15 -.799E-16   0.238E+02 0.000E+00 0.000E+00   0.291E-01 0.972E-15 0.232E-14
   -.155E+03 0.521E-12 0.352E-04   0.205E+03 -.301E-15 0.102E-15   -.542E+02 0.132E-22 -.132E-22   0.497E-01 0.147E-14 0.104E-13
 -----------------------------------------------------------------------------------------------
   0.303E+02 0.424E-12 0.227E-05   0.000E+00 -.136E-15 0.224E-16   -.304E+02 0.132E-22 -.132E-22   0.787E-01 0.245E-14 0.128E-13
 
 
 POSITION                                       TOTAL-FORCE (eV/Angst)
 -----------------------------------------------------------------------------------
      1.40000      2.00000      2.00000         4.123463      0.000000      0.000000
      2.60000      2.00000      2.00000        -4.123463      0.000000     -0.000000
 -----------------------------------------------------------------------------------
    total drift:                               -0.008049      0.000000      0.000002


--------------------------------------------------------------------------------------------------------



  FREE ENERGIE OF THE ION-ELECTRON SYSTEM (eV)
  ---------------------------------------------------
  free  energy   TOTEN  =       -15.35171869 eV

  energy  without entropy=      -15.36331450  energy(sigma->0) =      -15.35558396
 


--------------------------------------------------------------------------------------------------------


    POTLOK:  cpu time    0.0036: real time    0.0036


--------------------------------------------------------------------------------------------------------


 stress matrix after NEB project (eV)
    -10.45388     -0.00000      0.00000
      0.00000     -2.13949     -0.00000
      0.00000     -0.00000     -2.13949
  FORCES: max atom, RMS     4.123463    4.123463
  FORCE total and by dimension    5.831457    4.123463
  Stress total and by dimension   10.882940   10.453879
 writing wavefunctions
     LOOP+:  cpu time    0.1056: real time    0.1212
    4ORBIT:  cpu time    0.0000: real time    0.0000

 total amount of memory used by VASP on root node    30676. kBytes
========================================================================

   base      :      30000. kBytes
   nonl-proj :        153. kBytes
   fftplans  :        113. kBytes
   grid      :        389. kBytes
   one-center:          6. kBytes
   wavefun   :         15. kBytes
 
  
  
 General timing and accounting informations for this job:
 ========================================================
  
                  Total CPU time used (sec):        0.440
                            User time (sec):        0.296
                          System time (sec):        0.144
                         Elapsed time (sec):        0.600
  
                   Maximum memory used (kb):       62132.
                   Average memory used (kb):           0.
  
                          Minor page faults:         4407
                          Major page faults:            9
                 Voluntary context switches:         1587
