<?xml version="1.0" encoding="ISO-8859-1"?>
<modeling>
 <generator>
  <i name="program" type="string">vasp </i>
  <i name="version" type="string">5.4.1  </i>
  <i name="subversion" type="string">05Feb16 (build Apr 25 2018 11:37:45) complex                          parallel </i>
  <i name="platform" type="string">LinuxIFC </i>
  <i name="date" type="string">2023 01 29 </i>
  <i name="time" type="string">13:38:49 </i>
 </generator>
 <incar>
  <i type="string" name="PREC">normal</i>
  <i name="ENCUT">    350.00000000</i>
  <v type="int" name="KPOINT_BSE">    -1     0     0     0</v>
  <i type="string" name="GGA"> PE</i>
 </incar>
 <kpoints>
  <generation param="Monkhorst-Pack">
   <v type="int" name="divisions">       1        1        1 </v>
   <v name="usershift">      0.00000000       0.00000000       0.00000000 </v>
   <v name="genvec1">      1.00000000       0.00000000       0.00000000 </v>
   <v name="genvec2">      0.00000000       1.00000000       0.00000000 </v>
   <v name="genvec3">      0.00000000       0.00000000       1.00000000 </v>
   <v name="shift">      0.00000000       0.00000000       0.00000000 </v>
  </generation>
  <varray name="kpointlist" >
   <v>       0.00000000       0.00000000       0.00000000 </v>
  </varray>
  <varray name="weights" >
   <v>       1.00000000 </v>
  </varray>
 </kpoints>
 <parameters>
  <separator name="general" >
   <i type="string" name="SYSTEM">unknown system</i>
   <i type="logical" name="LCOMPAT"> F  </i>
  </separator>
  <separator name="electronic" >
   <i type="string" name="PREC">normal</i>
   <i name="ENMAX">    350.00000000</i>
   <i name="ENAUG">    644.87300000</i>
   <i name="EDIFF">      0.00010000</i>
   <i type="int" name="IALGO">    38</i>
   <i type="int" name="IWAVPR">    10</i>
   <i type="int" name="NBANDS">    24</i>
   <i name="NELECT">     10.00000000</i>
   <i type="int" name="TURBO">     0</i>
   <i type="int" name="IRESTART">     0</i>
   <i type="int" name="NREBOOT">     0</i>
   <i type="int" name="NMIN">     0</i>
   <i name="EREF">      0.00000000</i>
   <separator name="electronic smearing" >
    <i type="int" name="ISMEAR">     1</i>
    <i name="SIGMA">      0.20000000</i>
    <i name="KSPACING">      0.50000000</i>
    <i type="logical" name="KGAMMA"> T  </i>
   </separator>
   <separator name="electronic projectors" >
    <i type="logical" name="LREAL"> F  </i>
    <v name="ROPT">      0.00000000      0.00000000</v>
    <i type="int" name="LMAXPAW">  -100</i>
    <i type="int" name="LMAXMIX">     2</i>
    <i type="logical" name="NLSPLINE"> F  </i>
   </separator>
   <separator name="electronic startup" >
    <i type="int" name="ISTART">     1</i>
    <i type="int" name="ICHARG">     0</i>
    <i type="int" name="INIWAV">     1</i>
   </separator>
   <separator name="electronic spin" >
    <i type="int" name="ISPIN">     1</i>
    <i type="logical" name="LNONCOLLINEAR"> F  </i>
    <v name="MAGMOM">      1.00000000      1.00000000</v>
    <i name="NUPDOWN">     -1.00000000</i>
    <i type="logical" name="LSORBIT"> F  </i>
    <v name="SAXIS">      0.00000000      0.00000000      1.00000000</v>
    <i type="logical" name="LSPIRAL"> F  </i>
    <v name="QSPIRAL">      0.00000000      0.00000000      0.00000000</v>
    <i type="logical" name="LZEROZ"> F  </i>
   </separator>
   <separator name="electronic exchange-correlation" >
    <i type="logical" name="LASPH"> F  </i>
    <i type="logical" name="LMETAGGA"> F  </i>
   </separator>
   <separator name="electronic convergence" >
    <i type="int" name="NELM">    60</i>
    <i type="int" name="NELMDL">     0</i>
    <i type="int" name="NELMIN">     2</i>
    <i name="ENINI">    350.00000000</i>
    <separator name="electronic convergence detail" >
     <i type="logical" name="LDIAG"> T  </i>
     <i type="logical" name="LSUBROT"> F  </i>
     <i name="WEIMIN">      0.00000000</i>
     <i name="EBREAK">      0.00000104</i>
     <i name="DEPER">      0.30000000</i>
     <i type="int" name="NRMM">     4</i>
     <i name="TIME">      0.40000000</i>
    </separator>
   </separator>
   <separator name="electronic mixer" >
    <i name="AMIX">      0.40000000</i>
    <i name="BMIX">      1.00000000</i>
    <i name="AMIN">      0.10000000</i>
    <i name="AMIX_MAG">      1.60000000</i>
    <i name="BMIX_MAG">      1.00000000</i>
    <separator name="electronic mixer details" >
     <i type="int" name="IMIX">     4</i>
     <i type="logical" name="MIXFIRST"> F  </i>
     <i type="int" name="MAXMIX">   -45</i>
     <i name="WC">    100.00000000</i>
     <i type="int" name="INIMIX">     1</i>
     <i type="int" name="MIXPRE">     1</i>
     <i type="int" name="MREMOVE">     5</i>
    </separator>
   </separator>
   <separator name="electronic dipolcorrection" >
    <i type="logical" name="LDIPOL"> F  </i>
    <i type="logical" name="LMONO"> F  </i>
    <i type="int" name="IDIPOL">     0</i>
    <i name="EPSILON">      1.00000000</i>
    <v name="DIPOL">   -100.00000000   -100.00000000   -100.00000000</v>
    <i name="EFIELD">      0.00000000</i>
   </separator>
  </separator>
  <separator name="grids" >
   <i type="int" name="NGX">    18</i>
   <i type="int" name="NGY">    18</i>
   <i type="int" name="NGZ">    18</i>
   <i type="int" name="NGXF">    36</i>
   <i type="int" name="NGYF">    36</i>
   <i type="int" name="NGZF">    36</i>
   <i type="logical" name="ADDGRID"> F  </i>
  </separator>
  <separator name="ionic" >
   <i type="int" name="NSW">     0</i>
   <i type="int" name="IBRION">    -1</i>
   <i type="int" name="ISIF">     2</i>
   <i name="PSTRESS">      0.00000000</i>
   <i name="EDIFFG">      0.00100000</i>
   <i type="int" name="NFREE">     0</i>
   <i name="POTIM">      0.50000000</i>
   <i name="SMASS">     -3.00000000</i>
   <i name="SCALEE">      1.00000000</i>
  </separator>
  <separator name="ionic md" >
   <i name="TEBEG">      0.00010000</i>
   <i name="TEEND">      0.00010000</i>
   <i type="int" name="NBLOCK">     1</i>
   <i type="int" name="KBLOCK">     1</i>
   <i type="int" name="NPACO">   256</i>
   <i name="APACO">     16.00000000</i>
  </separator>
  <separator name="symmetry" >
   <i type="int" name="ISYM">     2</i>
   <i name="SYMPREC">      0.00001000</i>
  </separator>
  <separator name="dos" >
   <i type="logical" name="LORBIT"> F  </i>
   <v name="RWIGS">     -1.00000000     -1.00000000</v>
   <i type="int" name="NEDOS">   301</i>
   <i name="EMIN">     10.00000000</i>
   <i name="EMAX">    -10.00000000</i>
   <i name="EFERMI">      0.00000000</i>
  </separator>
  <separator name="writing" >
   <i type="int" name="NWRITE">     2</i>
   <i type="logical" name="LWAVE"> T  </i>
   <i type="logical" name="LCHARG"> T  </i>
   <i type="logical" name="LPARD"> F  </i>
   <i type="logical" name="LVTOT"> F  </i>
   <i type="logical" name="LVHAR"> F  </i>
   <i type="logical" name="LELF"> F  </i>
   <i type="logical" name="LOPTICS"> F  </i>
   <v name="STM">      0.00000000      0.00000000      0.00000000      0.00000000      0.00000000      0.00000000      0.00000000</v>
  </separator>
  <separator name="performance" >
   <i type="int" name="NPAR">    24</i>
   <i type="int" name="NSIM">     4</i>
   <i type="int" name="NBLK">    -1</i>
   <i type="logical" name="LPLANE"> T  </i>
   <i type="logical" name="LSCALAPACK"> F  </i>
   <i type="logical" name="LSCAAWARE"> F  </i>
   <i type="logical" name="LSCALU"> F  </i>
   <i type="logical" name="LASYNC"> F  </i>
   <i type="logical" name="LORBITALREAL"> F  </i>
  </separator>
  <separator name="miscellaneous" >
   <i type="int" name="IDIOT">     3</i>
   <i type="logical" name="LMUSIC"> F  </i>
   <v name="POMASS">     12.01100000     16.00000000</v>
   <v name="DARWINR">      0.00000000      0.00000000</v>
   <v name="DARWINV">      1.00000000      1.00000000</v>
   <i type="logical" name="LCORR"> T  </i>
  </separator>
  <i type="logical" name="GGA_COMPAT"> T  </i>
  <i type="logical" name="LBERRY"> F  </i>
  <i type="int" name="ICORELEVEL">     0</i>
  <i type="logical" name="LDAU"> F  </i>
  <i type="int" name="I_CONSTRAINED_M">     0</i>
  <separator name="electronic exchange-correlation" >
   <i type="string" name="GGA">PE</i>
   <i type="int" name="VOSKOWN">     0</i>
   <i type="logical" name="LHFCALC"> F  </i>
   <i type="string" name="PRECFOCK"></i>
   <i type="logical" name="LSYMGRAD"> F  </i>
   <i type="logical" name="LHFONE"> F  </i>
   <i type="logical" name="LRHFCALC"> F  </i>
   <i type="logical" name="LTHOMAS"> F  </i>
   <i type="logical" name="LMODELHF"> F  </i>
   <i name="ENCUT4O">     -1.00000000</i>
   <i type="int" name="EXXOEP">     0</i>
   <i type="int" name="FOURORBIT">     0</i>
   <i name="AEXX">      0.00000000</i>
   <i name="HFALPHA">      0.00000000</i>
   <i name="MCALPHA">      0.00000000</i>
   <i name="ALDAX">      1.00000000</i>
   <i name="AGGAX">      1.00000000</i>
   <i name="ALDAC">      1.00000000</i>
   <i name="AGGAC">      1.00000000</i>
   <i type="int" name="NKREDX">     1</i>
   <i type="int" name="NKREDY">     1</i>
   <i type="int" name="NKREDZ">     1</i>
   <i type="logical" name="SHIFTRED"> F  </i>
   <i type="logical" name="ODDONLY"> F  </i>
   <i type="logical" name="EVENONLY"> F  </i>
   <i type="int" name="LMAXFOCK">     0</i>
   <i type="int" name="NMAXFOCKAE">     0</i>
   <i type="logical" name="LFOCKAEDFT"> F  </i>
   <i name="HFSCREEN">      0.00000000</i>
   <i name="HFSCREENC">      0.00000000</i>
   <i type="int" name="NBANDSGWLOW">     0</i>
  </separator>
  <separator name="vdW DFT" >
   <i type="logical" name="LUSE_VDW"> F  </i>
   <i name="Zab_VDW">     -0.84910000</i>
   <i name="PARAM1">      0.12340000</i>
   <i name="PARAM2">      1.00000000</i>
   <i name="PARAM3">      0.00000000</i>
  </separator>
  <separator name="model GW" >
   <i type="int" name="MODEL_GW">     0</i>
   <i name="MODEL_EPS0">     19.20000000</i>
   <i name="MODEL_ALPHA">      1.00000000</i>
  </separator>
  <separator name="linear response parameters" >
   <i type="logical" name="LEPSILON"> F  </i>
   <i type="logical" name="LRPA"> F  </i>
   <i type="logical" name="LNABLA"> F  </i>
   <i type="logical" name="LVEL"> F  </i>
   <i type="int" name="KINTER">     0</i>
   <i name="CSHIFT">      0.10000000</i>
   <i name="OMEGAMAX">     -1.00000000</i>
   <i name="DEG_THRESHOLD">      0.00200000</i>
  </separator>
  <separator name="orbital magnetization" >
   <i type="logical" name="NUCIND"> F  </i>
   <v name="MAGPOS">      0.00000000      0.00000000      0.00000000</v>
   <i type="logical" name="LNICSALL"> T  </i>
   <i type="logical" name="ORBITALMAG"> F  </i>
   <i type="logical" name="LMAGBLOCH"> F  </i>
   <i type="logical" name="LCHIMAG"> F  </i>
   <i type="logical" name="LGAUGE"> T  </i>
   <i type="int" name="MAGATOM">     0</i>
   <v name="MAGDIPOL">      0.00000000      0.00000000      0.00000000</v>
   <v name="AVECCONST">      0.00000000      0.00000000      0.00000000</v>
  </separator>
  <separator name="response functions" >
   <i type="logical" name="LADDER"> F  </i>
   <i type="logical" name="LFXC"> F  </i>
   <i type="logical" name="LHARTREE"> T  </i>
   <i type="int" name="IBSE">     0</i>
   <v type="int" name="KPOINT">    -1     0     0     0</v>
   <i type="logical" name="LTCTE"> F  </i>
   <i type="logical" name="LTETE"> F  </i>
   <i type="logical" name="LTRIPLET"> F  </i>
   <i type="logical" name="LFXCEPS"> F  </i>
   <i type="logical" name="LFXHEG"> F  </i>
   <i type="int" name="NATURALO">     0</i>
   <i type="logical" name="L2ORDER"> F  </i>
   <i type="logical" name="LUSEW"> F  </i>
   <i name="ENCUTGW">     -2.00000000</i>
   <i name="ENCUTGWSOFT">     -2.00000000</i>
   <i name="ENCUTLF">     -1.00000000</i>
   <i type="int" name="LMAXMP2">    -1</i>
   <i name="SCISSOR">      0.00000000</i>
   <i type="int" name="NOMEGA">     0</i>
   <i type="int" name="NOMEGAR">     0</i>
   <i type="int" name="NBANDSGW">    -1</i>
   <i type="int" name="NBANDSO">    -1</i>
   <i type="int" name="NBANDSV">    -1</i>
   <i type="int" name="NELM">     1</i>
   <i type="int" name="NELMHF">     1</i>
   <i type="int" name="DIM">     3</i>
   <i type="int" name="ANTIRES">     0</i>
   <i name="OMEGAMAX">    -30.00000000</i>
   <i name="OMEGAMIN">    -30.00000000</i>
   <i name="OMEGATL">   -200.00000000</i>
   <i type="int" name="OMEGAGRID">     0</i>
   <i name="CSHIFT">     -0.10000000</i>
   <i type="logical" name="SELFENERGY"> F  </i>
   <i type="logical" name="LSPECTRAL"> F  </i>
   <i type="logical" name="LSPECTRALGW"> F  </i>
   <i type="logical" name="LSINGLES"> F  </i>
   <i type="logical" name="LFERMIGW"> F  </i>
   <i type="logical" name="ODDONLYGW"> F  </i>
   <i type="logical" name="EVENONLYGW"> F  </i>
   <i type="int" name="NKREDLFX">     1</i>
   <i type="int" name="NKREDLFY">     1</i>
   <i type="int" name="NKREDLFZ">     1</i>
   <i type="int" name="MAXMEM">  1800</i>
   <i type="int" name="TELESCOPE">     0</i>
   <i type="int" name="TAUPAR">     1</i>
   <i type="int" name="OMEGAPAR">    -1</i>
   <i name="LAMBDA">      1.00000000</i>
  </separator>
  <separator name="External order field" >
   <i name="OFIELD_KAPPA">      0.00000000</i>
   <v name="OFIELD_K">      0.00000000      0.00000000      0.00000000</v>
   <i name="OFIELD_Q6_NEAR">      0.00000000</i>
   <i name="OFIELD_Q6_FAR">      0.00000000</i>
   <i name="OFIELD_A">      0.00000000</i>
  </separator>
 </parameters>
 <atominfo>
  <atoms>       2 </atoms>
  <types>       2 </types>
  <array name="atoms" >
   <dimension dim="1">ion</dimension>
   <field type="string">element</field>
   <field type="int">atomtype</field>
   <set>
    <rc><c>C </c><c>   1</c></rc>
    <rc><c>O </c><c>   2</c></rc>
   </set>
  </array>
  <array name="atomtypes" >
   <dimension dim="1">type</dimension>
   <field type="int">atomspertype</field>
   <field type="string">element</field>
   <field>mass</field>
   <field>valence</field>
   <field type="string">pseudopotential</field>
   <set>
    <rc><c>   1</c><c>C </c><c>     12.01100000</c><c>      4.00000000</c><c>  PAW_PBE C 08Apr2002                   </c></rc>
    <rc><c>   1</c><c>O </c><c>     16.00000000</c><c>      6.00000000</c><c>  PAW_PBE O 08Apr2002                   </c></rc>
   </set>
  </array>
 </atominfo>
 <structure name="initialpos" >
  <crystal>
   <varray name="basis" >
    <v>       4.00000000       0.00000000       0.00000000 </v>
    <v>       0.00000000       4.00000000       0.00000000 </v>
    <v>       0.00000000       0.00000000       4.00000000 </v>
   </varray>
   <i name="volume">     64.00000000 </i>
   <varray name="rec_basis" >
    <v>       0.25000000       0.00000000       0.00000000 </v>
    <v>       0.00000000       0.25000000       0.00000000 </v>
    <v>       0.00000000       0.00000000       0.25000000 </v>
   </varray>
  </crystal>
  <varray name="positions" >
   <v>       0.35000000       0.50000000       0.50000000 </v>
   <v>       0.65000000       0.50000000       0.50000000 </v>
  </varray>
 </structure>
 <calculation>
  <scstep>
   <time name="dav">    0.01    0.01</time>
   <time name="total">    0.02    0.02</time>
   <energy>
    <i name="alphaZ">      6.82746172 </i>
    <i name="ewald">   -204.19401249 </i>
    <i name="hartreedc">   -309.41141962 </i>
    <i name="XCdc">     39.88113793 </i>
    <i name="pawpsdc">    772.96395716 </i>
    <i name="pawaedc">   -775.16211184 </i>
    <i name="eentropy">      0.01159581 </i>
    <i name="bandstr">   -125.33957445 </i>
    <i name="atom">    579.07123046 </i>
    <i name="e_fr_energy">    -15.35173532 </i>
    <i name="e_wo_entrp">    -15.36333113 </i>
    <i name="e_0_energy">    -15.35560059 </i>
   </energy>
  </scstep>
  <scstep>
   <time name="dav">    0.00    0.00</time>
   <time name="total">    0.01    0.01</time>
   <energy>
    <i name="alphaZ">      6.82746172 </i>
    <i name="ewald">   -204.19401249 </i>
    <i name="hartreedc">   -309.46717299 </i>
    <i name="XCdc">     39.88411746 </i>
    <i name="pawpsdc">    773.05705275 </i>
    <i name="pawaedc">   -775.25596250 </i>
    <i name="eentropy">      0.01159581 </i>
    <i name="bandstr">   -125.28602891 </i>
    <i name="atom">    579.07123046 </i>
    <i name="e_fr_energy">    -15.35171869 </i>
    <i name="e_wo_entrp">    -15.36331450 </i>
    <i name="e_0_energy">    -15.35558396 </i>
   </energy>
  </scstep>
  <structure>
   <crystal>
    <varray name="basis" >
     <v>       4.00000000       0.00000000       0.00000000 </v>
     <v>       0.00000000       4.00000000       0.00000000 </v>
     <v>       0.00000000       0.00000000       4.00000000 </v>
    </varray>
    <i name="volume">     64.00000000 </i>
    <varray name="rec_basis" >
     <v>       0.25000000       0.00000000       0.00000000 </v>
     <v>       0.00000000       0.25000000       0.00000000 </v>
     <v>       0.00000000       0.00000000       0.25000000 </v>
    </varray>
   </crystal>
   <varray name="positions" >
    <v>       0.35000000       0.50000000       0.50000000 </v>
    <v>       0.65000000       0.50000000       0.50000000 </v>
   </varray>
  </structure>
  <varray name="forces" >
   <v>       4.12346292       0.00000000       0.00000000 </v>
   <v>      -4.12346292       0.00000000      -0.00000000 </v>
  </varray>
  <varray name="stress" >
   <v>    -261.70261987      -0.00000000       0.00000000 </v>
   <v>       0.00000000     -53.55995793      -0.00000000 </v>
   <v>       0.00000000      -0.00000000     -53.55995793 </v>
  </varray>
  <energy>
   <i name="e_fr_energy">    -15.35171869 </i>
   <i name="e_wo_entrp">    -15.35558396 </i>
   <i name="e_0_energy">      0.01159581 </i>
  </energy>
  <time name="totalsc">    0.11    0.12</time>
  <eigenvalues>
   <array>
    <dimension dim="1">band</dimension>
    <dimension dim="2">kpoint</dimension>
    <dimension dim="3">spin</dimension>
    <field>eigene</field>
    <field>occ</field>
    <set>
     <set comment="spin 1">
      <set comment="kpoint 1">
       <r>  -26.0578    1.0000 </r>
       <r>  -11.4543    1.0000 </r>
       <r>   -8.7761    1.0000 </r>
       <r>   -8.7761    1.0000 </r>
       <r>   -7.5788    1.0000 </r>
       <r>    0.3315    0.0000 </r>
       <r>    0.3315    0.0000 </r>
       <r>    2.0469    0.0000 </r>
       <r>    6.9980    0.0000 </r>
       <r>    8.3769    0.0000 </r>
       <r>   10.3574    0.0000 </r>
       <r>   10.3574    0.0000 </r>
       <r>   10.5493    0.0000 </r>
       <r>   14.0375    0.0000 </r>
       <r>   14.1400    0.0000 </r>
       <r>   15.6202    0.0000 </r>
       <r>   15.6202    0.0000 </r>
       <r>   15.7993    0.0000 </r>
       <r>   16.3306    0.0000 </r>
       <r>   16.9450    0.0000 </r>
       <r>   18.8624    0.0000 </r>
       <r>   19.4289    0.0000 </r>
       <r>   19.4289    0.0000 </r>
       <r>   21.7965    0.0000 </r>
      </set>
     </set>
    </set>
   </array>
  </eigenvalues>
  <separator name="orbital magnetization" >
   <v name="MAGDIPOLOUT">      0.00000000      0.00000000      0.00000000</v>
  </separator>
  <dos>
   <i name="efermi">     -7.41045446 </i>
   <total>
    <array>
     <dimension dim="1">gridpoints</dimension>
     <dimension dim="2">spin</dimension>
     <field>energy</field>
     <field>total</field>
     <field>integrated</field>
     <set>
      <set comment="spin 1">
       <r>   -28.4505     0.0000     0.0000 </r>
       <r>   -28.2750     0.0000     0.0000 </r>
       <r>   -28.0996     0.0000     0.0000 </r>
       <r>   -27.9241     0.0000     0.0000 </r>
       <r>   -27.7486    -0.0000    -0.0000 </r>
       <r>   -27.5732    -0.0000    -0.0000 </r>
       <r>   -27.3977    -0.0000    -0.0000 </r>
       <r>   -27.2222    -0.0000    -0.0000 </r>
       <r>   -27.0468    -0.0000    -0.0000 </r>
       <r>   -26.8713    -0.0000    -0.0000 </r>
       <r>   -26.6958    -0.0004    -0.0001 </r>
       <r>   -26.5204    -0.0289    -0.0051 </r>
       <r>   -26.3449    -0.3173    -0.0608 </r>
       <r>   -26.1694     1.4815     0.1992 </r>
       <r>   -25.9940     7.4747     1.5107 </r>
       <r>   -25.8185     3.1912     2.0707 </r>
       <r>   -25.6430    -0.3314     2.0125 </r>
       <r>   -25.4676    -0.0699     2.0002 </r>
       <r>   -25.2921    -0.0014     2.0000 </r>
       <r>   -25.1166    -0.0000     2.0000 </r>
       <r>   -24.9412    -0.0000     2.0000 </r>
       <r>   -24.7657    -0.0000     2.0000 </r>
       <r>   -24.5902     0.0000     2.0000 </r>
       <r>   -24.4148     0.0000     2.0000 </r>
       <r>   -24.2393     0.0000     2.0000 </r>
       <r>   -24.0638     0.0000     2.0000 </r>
       <r>   -23.8884     0.0000     2.0000 </r>
       <r>   -23.7129     0.0000     2.0000 </r>
       <r>   -23.5375     0.0000     2.0000 </r>
       <r>   -23.3620     0.0000     2.0000 </r>
       <r>   -23.1865     0.0000     2.0000 </r>
       <r>   -23.0111     0.0000     2.0000 </r>
       <r>   -22.8356     0.0000     2.0000 </r>
       <r>   -22.6601     0.0000     2.0000 </r>
       <r>   -22.4847     0.0000     2.0000 </r>
       <r>   -22.3092     0.0000     2.0000 </r>
       <r>   -22.1337     0.0000     2.0000 </r>
       <r>   -21.9583     0.0000     2.0000 </r>
       <r>   -21.7828     0.0000     2.0000 </r>
       <r>   -21.6073     0.0000     2.0000 </r>
       <r>   -21.4319     0.0000     2.0000 </r>
       <r>   -21.2564     0.0000     2.0000 </r>
       <r>   -21.0809     0.0000     2.0000 </r>
       <r>   -20.9055     0.0000     2.0000 </r>
       <r>   -20.7300     0.0000     2.0000 </r>
       <r>   -20.5545     0.0000     2.0000 </r>
       <r>   -20.3791     0.0000     2.0000 </r>
       <r>   -20.2036     0.0000     2.0000 </r>
       <r>   -20.0281     0.0000     2.0000 </r>
       <r>   -19.8527     0.0000     2.0000 </r>
       <r>   -19.6772     0.0000     2.0000 </r>
       <r>   -19.5017     0.0000     2.0000 </r>
       <r>   -19.3263     0.0000     2.0000 </r>
       <r>   -19.1508     0.0000     2.0000 </r>
       <r>   -18.9753     0.0000     2.0000 </r>
       <r>   -18.7999     0.0000     2.0000 </r>
       <r>   -18.6244     0.0000     2.0000 </r>
       <r>   -18.4489     0.0000     2.0000 </r>
       <r>   -18.2735     0.0000     2.0000 </r>
       <r>   -18.0980     0.0000     2.0000 </r>
       <r>   -17.9225     0.0000     2.0000 </r>
       <r>   -17.7471     0.0000     2.0000 </r>
       <r>   -17.5716     0.0000     2.0000 </r>
       <r>   -17.3962     0.0000     2.0000 </r>
       <r>   -17.2207     0.0000     2.0000 </r>
       <r>   -17.0452     0.0000     2.0000 </r>
       <r>   -16.8698     0.0000     2.0000 </r>
       <r>   -16.6943     0.0000     2.0000 </r>
       <r>   -16.5188     0.0000     2.0000 </r>
       <r>   -16.3434     0.0000     2.0000 </r>
       <r>   -16.1679     0.0000     2.0000 </r>
       <r>   -15.9924     0.0000     2.0000 </r>
       <r>   -15.8170     0.0000     2.0000 </r>
       <r>   -15.6415     0.0000     2.0000 </r>
       <r>   -15.4660     0.0000     2.0000 </r>
       <r>   -15.2906     0.0000     2.0000 </r>
       <r>   -15.1151     0.0000     2.0000 </r>
       <r>   -14.9396     0.0000     2.0000 </r>
       <r>   -14.7642     0.0000     2.0000 </r>
       <r>   -14.5887     0.0000     2.0000 </r>
       <r>   -14.4132     0.0000     2.0000 </r>
       <r>   -14.2378     0.0000     2.0000 </r>
       <r>   -14.0623     0.0000     2.0000 </r>
       <r>   -13.8868     0.0000     2.0000 </r>
       <r>   -13.7114     0.0000     2.0000 </r>
       <r>   -13.5359     0.0000     2.0000 </r>
       <r>   -13.3604     0.0000     2.0000 </r>
       <r>   -13.1850    -0.0000     2.0000 </r>
       <r>   -13.0095    -0.0000     2.0000 </r>
       <r>   -12.8340    -0.0000     2.0000 </r>
       <r>   -12.6586    -0.0000     2.0000 </r>
       <r>   -12.4831    -0.0000     2.0000 </r>
       <r>   -12.3076    -0.0000     2.0000 </r>
       <r>   -12.1322    -0.0001     2.0000 </r>
       <r>   -11.9567    -0.0124     1.9978 </r>
       <r>   -11.7812    -0.2322     1.9571 </r>
       <r>   -11.6058     0.4917     2.0433 </r>
       <r>   -11.4303     6.5998     3.2014 </r>
       <r>   -11.2548     4.8346     4.0497 </r>
       <r>   -11.0794    -0.1494     4.0235 </r>
       <r>   -10.9039    -0.1298     4.0007 </r>
       <r>   -10.7285    -0.0040     4.0000 </r>
       <r>   -10.5530    -0.0000     4.0000 </r>
       <r>   -10.3775    -0.0000     4.0000 </r>
       <r>   -10.2021    -0.0000     4.0000 </r>
       <r>   -10.0266    -0.0000     4.0000 </r>
       <r>    -9.8511    -0.0000     4.0000 </r>
       <r>    -9.6757    -0.0000     4.0000 </r>
       <r>    -9.5002    -0.0000     4.0000 </r>
       <r>    -9.3247    -0.0083     3.9985 </r>
       <r>    -9.1493    -0.2658     3.9519 </r>
       <r>    -8.9738    -0.2711     3.9043 </r>
       <r>    -8.7983     9.8092     5.6255 </r>
       <r>    -8.6229    13.0951     7.9233 </r>
       <r>    -8.4474     0.9179     8.0843 </r>
       <r>    -8.2719    -0.4565     8.0042 </r>
       <r>    -8.0965    -0.0326     7.9985 </r>
       <r>    -7.9210    -0.1974     7.9638 </r>
       <r>    -7.7455     0.2273     8.0037 </r>
       <r>    -7.5701     6.1000     9.0741 </r>
       <r>    -7.3946     5.4467    10.0298 </r>
       <r>    -7.2191    -0.0045    10.0290 </r>
       <r>    -7.0437    -0.1594    10.0010 </r>
       <r>    -6.8682    -0.0058    10.0000 </r>
       <r>    -6.6927    -0.0000    10.0000 </r>
       <r>    -6.5173    -0.0000    10.0000 </r>
       <r>    -6.3418    -0.0000    10.0000 </r>
       <r>    -6.1663     0.0000    10.0000 </r>
       <r>    -5.9909     0.0000    10.0000 </r>
       <r>    -5.8154     0.0000    10.0000 </r>
       <r>    -5.6399     0.0000    10.0000 </r>
       <r>    -5.4645     0.0000    10.0000 </r>
       <r>    -5.2890     0.0000    10.0000 </r>
       <r>    -5.1135     0.0000    10.0000 </r>
       <r>    -4.9381     0.0000    10.0000 </r>
       <r>    -4.7626     0.0000    10.0000 </r>
       <r>    -4.5872     0.0000    10.0000 </r>
       <r>    -4.4117     0.0000    10.0000 </r>
       <r>    -4.2362     0.0000    10.0000 </r>
       <r>    -4.0608     0.0000    10.0000 </r>
       <r>    -3.8853     0.0000    10.0000 </r>
       <r>    -3.7098     0.0000    10.0000 </r>
       <r>    -3.5344     0.0000    10.0000 </r>
       <r>    -3.3589     0.0000    10.0000 </r>
       <r>    -3.1834     0.0000    10.0000 </r>
       <r>    -3.0080     0.0000    10.0000 </r>
       <r>    -2.8325     0.0000    10.0000 </r>
       <r>    -2.6570     0.0000    10.0000 </r>
       <r>    -2.4816     0.0000    10.0000 </r>
       <r>    -2.3061     0.0000    10.0000 </r>
       <r>    -2.1306     0.0000    10.0000 </r>
       <r>    -1.9552     0.0000    10.0000 </r>
       <r>    -1.7797     0.0000    10.0000 </r>
       <r>    -1.6042     0.0000    10.0000 </r>
       <r>    -1.4288    -0.0000    10.0000 </r>
       <r>    -1.2533    -0.0000    10.0000 </r>
       <r>    -1.0778    -0.0000    10.0000 </r>
       <r>    -0.9024    -0.0000    10.0000 </r>
       <r>    -0.7269    -0.0000    10.0000 </r>
       <r>    -0.5514    -0.0000    10.0000 </r>
       <r>    -0.3760    -0.0001    10.0000 </r>
       <r>    -0.2005    -0.0125     9.9978 </r>
       <r>    -0.0250    -0.3318     9.9396 </r>
       <r>     0.1504     0.0634     9.9507 </r>
       <r>     0.3259    11.1377    11.9050 </r>
       <r>     0.5014    11.9760    14.0064 </r>
       <r>     0.6768     0.3603    14.0696 </r>
       <r>     0.8523    -0.3804    14.0029 </r>
       <r>     1.0278    -0.0163    14.0000 </r>
       <r>     1.2032    -0.0001    14.0000 </r>
       <r>     1.3787    -0.0001    14.0000 </r>
       <r>     1.5541    -0.0154    13.9973 </r>
       <r>     1.7296    -0.2546    13.9526 </r>
       <r>     1.9051     0.6924    14.0741 </r>
       <r>     2.0805     6.8759    15.2806 </r>
       <r>     2.2560     4.4334    16.0585 </r>
       <r>     2.4315    -0.2174    16.0203 </r>
       <r>     2.6069    -0.1128    16.0005 </r>
       <r>     2.7824    -0.0031    16.0000 </r>
       <r>     2.9579    -0.0000    16.0000 </r>
       <r>     3.1333    -0.0000    16.0000 </r>
       <r>     3.3088    -0.0000    16.0000 </r>
       <r>     3.4843     0.0000    16.0000 </r>
       <r>     3.6597     0.0000    16.0000 </r>
       <r>     3.8352     0.0000    16.0000 </r>
       <r>     4.0107     0.0000    16.0000 </r>
       <r>     4.1861     0.0000    16.0000 </r>
       <r>     4.3616     0.0000    16.0000 </r>
       <r>     4.5371     0.0000    16.0000 </r>
       <r>     4.7125     0.0000    16.0000 </r>
       <r>     4.8880     0.0000    16.0000 </r>
       <r>     5.0635     0.0000    16.0000 </r>
       <r>     5.2389    -0.0000    16.0000 </r>
       <r>     5.4144    -0.0000    16.0000 </r>
       <r>     5.5899    -0.0000    16.0000 </r>
       <r>     5.7653    -0.0000    16.0000 </r>
       <r>     5.9408    -0.0000    16.0000 </r>
       <r>     6.1163    -0.0000    16.0000 </r>
       <r>     6.2917    -0.0000    16.0000 </r>
       <r>     6.4672    -0.0064    15.9989 </r>
       <r>     6.6427    -0.1685    15.9693 </r>
       <r>     6.8181     0.0463    15.9774 </r>
       <r>     6.9936     5.6156    16.9628 </r>
       <r>     7.1691     5.9440    18.0058 </r>
       <r>     7.3445     0.1626    18.0343 </r>
       <r>     7.5200    -0.1875    18.0014 </r>
       <r>     7.6955    -0.0080    18.0000 </r>
       <r>     7.8709    -0.0115    17.9980 </r>
       <r>     8.0464    -0.2238    17.9587 </r>
       <r>     8.2218     0.4234    18.0330 </r>
       <r>     8.3973     6.4881    19.1714 </r>
       <r>     8.5728     4.9823    20.0457 </r>
       <r>     8.7482    -0.1194    20.0247 </r>
       <r>     8.9237    -0.1365    20.0008 </r>
       <r>     9.0992    -0.0043    20.0000 </r>
       <r>     9.2746    -0.0000    20.0000 </r>
       <r>     9.4501    -0.0000    20.0000 </r>
       <r>     9.6256    -0.0000    20.0000 </r>
       <r>     9.8010    -0.0068    19.9988 </r>
       <r>     9.9765    -0.2405    19.9566 </r>
       <r>    10.1520    -0.4798    19.8724 </r>
       <r>    10.3274     8.8938    21.4330 </r>
       <r>    10.5029    17.4542    24.4956 </r>
       <r>    10.6784     8.4039    25.9702 </r>
       <r>    10.8538     0.5019    26.0583 </r>
       <r>    11.0293    -0.3114    26.0036 </r>
       <r>    11.2048    -0.0204    26.0000 </r>
       <r>    11.3802    -0.0002    26.0000 </r>
       <r>    11.5557    -0.0000    26.0000 </r>
       <r>    11.7312    -0.0000    26.0000 </r>
       <r>    11.9066    -0.0000    26.0000 </r>
       <r>    12.0821     0.0000    26.0000 </r>
       <r>    12.2576     0.0000    26.0000 </r>
       <r>    12.4330    -0.0000    26.0000 </r>
       <r>    12.6085    -0.0000    26.0000 </r>
       <r>    12.7840    -0.0000    26.0000 </r>
       <r>    12.9594    -0.0000    26.0000 </r>
       <r>    13.1349    -0.0000    26.0000 </r>
       <r>    13.3104    -0.0000    26.0000 </r>
       <r>    13.4858    -0.0040    25.9993 </r>
       <r>    13.6613    -0.1481    25.9733 </r>
       <r>    13.8368    -0.4457    25.8951 </r>
       <r>    14.0122     5.8095    26.9145 </r>
       <r>    14.1877    13.8467    29.3441 </r>
       <r>    14.3631     4.3663    30.1102 </r>
       <r>    14.5386    -0.5223    30.0186 </r>
       <r>    14.7141    -0.1037    30.0004 </r>
       <r>    14.8895    -0.0023    30.0000 </r>
       <r>    15.0650    -0.0070    29.9988 </r>
       <r>    15.2405    -0.2457    29.9557 </r>
       <r>    15.4159    -0.4849    29.8706 </r>
       <r>    15.5914     9.0663    31.4614 </r>
       <r>    15.7669    17.9606    34.6129 </r>
       <r>    15.9423     7.9111    36.0010 </r>
       <r>    16.1178    -0.0592    35.9906 </r>
       <r>    16.2933     4.0006    36.6926 </r>
       <r>    16.4687     6.9338    37.9092 </r>
       <r>    16.6442     0.4839    37.9941 </r>
       <r>    16.8197     0.8307    38.1399 </r>
       <r>    16.9951     7.2397    39.4102 </r>
       <r>    17.1706     3.7468    40.0677 </r>
       <r>    17.3461    -0.2961    40.0157 </r>
       <r>    17.5215    -0.0875    40.0004 </r>
       <r>    17.6970    -0.0020    40.0000 </r>
       <r>    17.8725    -0.0000    40.0000 </r>
       <r>    18.0479    -0.0000    40.0000 </r>
       <r>    18.2234    -0.0003    39.9999 </r>
       <r>    18.3989    -0.0283    39.9950 </r>
       <r>    18.5743    -0.3157    39.9396 </r>
       <r>    18.7498     1.4537    40.1946 </r>
       <r>    18.9253     7.4388    41.4999 </r>
       <r>    19.1007     2.7693    41.9858 </r>
       <r>    19.2762     0.6067    42.0923 </r>
       <r>    19.4517    13.0541    44.3828 </r>
       <r>    19.6271     9.7679    46.0967 </r>
       <r>    19.8026    -0.2791    46.0478 </r>
       <r>    19.9781    -0.2640    46.0014 </r>
       <r>    20.1535    -0.0082    46.0000 </r>
       <r>    20.3290    -0.0000    46.0000 </r>
       <r>    20.5044    -0.0000    46.0000 </r>
       <r>    20.6799    -0.0000    46.0000 </r>
       <r>    20.8554    -0.0000    46.0000 </r>
       <r>    21.0308    -0.0000    46.0000 </r>
       <r>    21.2063    -0.0014    45.9998 </r>
       <r>    21.3818    -0.0699    45.9875 </r>
       <r>    21.5572    -0.3314    45.9293 </r>
       <r>    21.7327     3.1912    46.4893 </r>
       <r>    21.9082     7.4747    47.8008 </r>
       <r>    22.0836     1.4815    48.0608 </r>
       <r>    22.2591    -0.3173    48.0051 </r>
       <r>    22.4346    -0.0289    48.0001 </r>
       <r>    22.6100    -0.0004    48.0000 </r>
       <r>    22.7855    -0.0000    48.0000 </r>
       <r>    22.9610    -0.0000    48.0000 </r>
       <r>    23.1364    -0.0000    48.0000 </r>
       <r>    23.3119     0.0000    48.0000 </r>
       <r>    23.4874     0.0000    48.0000 </r>
       <r>    23.6628     0.0000    48.0000 </r>
       <r>    23.8383     0.0000    48.0000 </r>
       <r>    24.0138     0.0000    48.0000 </r>
       <r>    24.1892     0.0000    48.0000 </r>
      </set>
     </set>
    </array>
   </total>
  </dos>
 </calculation>
 <structure name="finalpos" >
  <crystal>
   <varray name="basis" >
    <v>       4.00000000       0.00000000       0.00000000 </v>
    <v>       0.00000000       4.00000000       0.00000000 </v>
    <v>       0.00000000       0.00000000       4.00000000 </v>
   </varray>
   <i name="volume">     64.00000000 </i>
   <varray name="rec_basis" >
    <v>       0.25000000       0.00000000       0.00000000 </v>
    <v>       0.00000000       0.25000000       0.00000000 </v>
    <v>       0.00000000       0.00000000       0.25000000 </v>
   </varray>
  </crystal>
  <varray name="positions" >
   <v>       0.35000000       0.50000000       0.50000000 </v>
   <v>       0.65000000       0.50000000       0.50000000 </v>
  </varray>
 </structure>
</modeling>
