   2   2   0   0
  0.5000000E+03  0.1000000E-08  0.1000000E-08  0.1000000E-08  0.5000000E-15
  1.000000000000000E-004
  CAR 
 unknown system                          
      4.88721918    -30.36853983  301     -8.87249341      1.00000000
    -30.369  0.0000E+00  0.0000E+00
    -30.251  0.0000E+00  0.0000E+00
    -30.134  0.0000E+00  0.0000E+00
    -30.016 -0.1347E-27 -0.1583E-28
    -29.898 -0.1417E-23 -0.1666E-24
    -29.781 -0.7430E-20 -0.8733E-21
    -29.663 -0.1939E-16 -0.2279E-17
    -29.546 -0.2420E-13 -0.2847E-14
    -29.428 -0.1562E-10 -0.1838E-11
    -29.311 -0.4925E-08 -0.5806E-09
    -29.193 -0.7619E-06 -0.9012E-07
    -29.076 -0.5725E-04 -0.6818E-05
    -28.958 -0.2052E-02 -0.2479E-03
    -28.841 -0.3370E-01 -0.4209E-02
    -28.723 -0.2274E+00 -0.3093E-01
    -28.606 -0.3361E+00 -0.7043E-01
    -28.488  0.1972E+01  0.1614E+00
    -28.371  0.6980E+01  0.9816E+00
    -28.253  0.7122E+01  0.1819E+01
    -28.136  0.2137E+01  0.2070E+01
    -28.018 -0.3149E+00  0.2033E+01
    -27.901 -0.2390E+00  0.2005E+01
    -27.783 -0.3679E-01  0.2000E+01
    -27.666 -0.2308E-02  0.2000E+01
    -27.548 -0.6623E-04  0.2000E+01
    -27.431 -0.9055E-06  0.2000E+01
    -27.313 -0.6011E-08  0.2000E+01
    -27.196 -0.1956E-10  0.2000E+01
    -27.078 -0.3401E-13  0.2000E+01
    -26.960  0.0000E+00  0.2000E+01
    -26.843  0.0000E+00  0.2000E+01
    -26.725  0.0000E+00  0.2000E+01
    -26.608  0.0000E+00  0.2000E+01
    -26.490  0.0000E+00  0.2000E+01
    -26.373  0.0000E+00  0.2000E+01
    -26.255  0.0000E+00  0.2000E+01
    -26.138  0.0000E+00  0.2000E+01
    -26.020  0.0000E+00  0.2000E+01
    -25.903  0.0000E+00  0.2000E+01
    -25.785  0.0000E+00  0.2000E+01
    -25.668  0.0000E+00  0.2000E+01
    -25.550  0.0000E+00  0.2000E+01
    -25.433  0.0000E+00  0.2000E+01
    -25.315  0.0000E+00  0.2000E+01
    -25.198  0.0000E+00  0.2000E+01
    -25.080  0.0000E+00  0.2000E+01
    -24.963  0.0000E+00  0.2000E+01
    -24.845  0.0000E+00  0.2000E+01
    -24.728  0.0000E+00  0.2000E+01
    -24.610  0.0000E+00  0.2000E+01
    -24.493  0.0000E+00  0.2000E+01
    -24.375  0.0000E+00  0.2000E+01
    -24.258  0.0000E+00  0.2000E+01
    -24.140  0.0000E+00  0.2000E+01
    -24.023  0.0000E+00  0.2000E+01
    -23.905  0.0000E+00  0.2000E+01
    -23.787  0.0000E+00  0.2000E+01
    -23.670  0.0000E+00  0.2000E+01
    -23.552  0.0000E+00  0.2000E+01
    -23.435  0.0000E+00  0.2000E+01
    -23.317  0.0000E+00  0.2000E+01
    -23.200  0.0000E+00  0.2000E+01
    -23.082  0.0000E+00  0.2000E+01
    -22.965  0.0000E+00  0.2000E+01
    -22.847  0.0000E+00  0.2000E+01
    -22.730  0.0000E+00  0.2000E+01
    -22.612  0.0000E+00  0.2000E+01
    -22.495  0.0000E+00  0.2000E+01
    -22.377  0.0000E+00  0.2000E+01
    -22.260  0.0000E+00  0.2000E+01
    -22.142  0.0000E+00  0.2000E+01
    -22.025  0.0000E+00  0.2000E+01
    -21.907  0.0000E+00  0.2000E+01
    -21.790  0.0000E+00  0.2000E+01
    -21.672  0.0000E+00  0.2000E+01
    -21.555  0.0000E+00  0.2000E+01
    -21.437  0.0000E+00  0.2000E+01
    -21.320  0.0000E+00  0.2000E+01
    -21.202  0.0000E+00  0.2000E+01
    -21.085  0.0000E+00  0.2000E+01
    -20.967  0.0000E+00  0.2000E+01
    -20.849  0.0000E+00  0.2000E+01
    -20.732  0.0000E+00  0.2000E+01
    -20.614  0.0000E+00  0.2000E+01
    -20.497  0.0000E+00  0.2000E+01
    -20.379  0.0000E+00  0.2000E+01
    -20.262  0.0000E+00  0.2000E+01
    -20.144  0.0000E+00  0.2000E+01
    -20.027  0.0000E+00  0.2000E+01
    -19.909  0.0000E+00  0.2000E+01
    -19.792  0.0000E+00  0.2000E+01
    -19.674  0.0000E+00  0.2000E+01
    -19.557  0.0000E+00  0.2000E+01
    -19.439  0.0000E+00  0.2000E+01
    -19.322  0.0000E+00  0.2000E+01
    -19.204  0.0000E+00  0.2000E+01
    -19.087  0.0000E+00  0.2000E+01
    -18.969  0.0000E+00  0.2000E+01
    -18.852  0.0000E+00  0.2000E+01
    -18.734  0.0000E+00  0.2000E+01
    -18.617  0.0000E+00  0.2000E+01
    -18.499  0.0000E+00  0.2000E+01
    -18.382  0.0000E+00  0.2000E+01
    -18.264  0.0000E+00  0.2000E+01
    -18.147  0.0000E+00  0.2000E+01
    -18.029  0.0000E+00  0.2000E+01
    -17.912  0.0000E+00  0.2000E+01
    -17.794  0.0000E+00  0.2000E+01
    -17.676  0.0000E+00  0.2000E+01
    -17.559  0.0000E+00  0.2000E+01
    -17.441  0.0000E+00  0.2000E+01
    -17.324  0.0000E+00  0.2000E+01
    -17.206  0.0000E+00  0.2000E+01
    -17.089  0.0000E+00  0.2000E+01
    -16.971  0.0000E+00  0.2000E+01
    -16.854  0.0000E+00  0.2000E+01
    -16.736  0.0000E+00  0.2000E+01
    -16.619  0.0000E+00  0.2000E+01
    -16.501  0.0000E+00  0.2000E+01
    -16.384  0.0000E+00  0.2000E+01
    -16.266  0.0000E+00  0.2000E+01
    -16.149  0.0000E+00  0.2000E+01
    -16.031  0.0000E+00  0.2000E+01
    -15.914  0.0000E+00  0.2000E+01
    -15.796  0.0000E+00  0.2000E+01
    -15.679 -0.7815E-29  0.2000E+01
    -15.561 -0.1008E-24  0.2000E+01
    -15.444 -0.6483E-21  0.2000E+01
    -15.326 -0.2076E-17  0.2000E+01
    -15.209 -0.3306E-14  0.2000E+01
    -15.091 -0.2527E-11  0.2000E+01
    -14.974 -0.9810E-09  0.2000E+01
    -14.856 -0.1871E-06  0.2000E+01
    -14.738 -0.1740E-04  0.2000E+01
    -14.621 -0.7770E-03  0.2000E+01
    -14.503 -0.1615E-01  0.1998E+01
    -14.386 -0.1444E+00  0.1981E+01
    -14.268 -0.4033E+00  0.1934E+01
    -14.151  0.8679E+00  0.2036E+01
    -14.033  0.5617E+01  0.2696E+01
    -13.916  0.7920E+01  0.3626E+01
    -13.798  0.3592E+01  0.4049E+01
    -13.681 -0.4644E-02  0.4048E+01
    -13.563 -0.3322E+00  0.4009E+01
    -13.446 -0.7054E-01  0.4001E+01
    -13.328 -0.5653E-02  0.4000E+01
    -13.211 -0.2028E-03  0.4000E+01
    -13.093 -0.3438E-05  0.4000E+01
    -12.976 -0.2817E-07  0.4000E+01
    -12.858 -0.1129E-09  0.4000E+01
    -12.741 -0.2230E-12  0.4000E+01
    -12.623 -0.4866E-21  0.4000E+01
    -12.506 -0.1689E-17  0.4000E+01
    -12.388 -0.2917E-14  0.4000E+01
    -12.271 -0.2420E-11  0.4000E+01
    -12.153 -0.1020E-08  0.4000E+01
    -12.036 -0.2113E-06  0.4000E+01
    -11.918 -0.2137E-04  0.4000E+01
    -11.801 -0.1040E-02  0.4000E+01
    -11.683 -0.2367E-01  0.3997E+01
    -11.565 -0.2353E+00  0.3969E+01
    -11.448 -0.7872E+00  0.3877E+01
    -11.330  0.1070E+01  0.4003E+01
    -11.213  0.1001E+02  0.5179E+01
    -11.095  0.1610E+02  0.7070E+01
    -10.978  0.8432E+01  0.8061E+01
    -10.860  0.4016E+00  0.8109E+01
    -10.743 -0.7286E+00  0.8023E+01
    -10.625 -0.1785E+00  0.8002E+01
    -10.508 -0.1581E-01  0.8000E+01
    -10.390 -0.6202E-03  0.8000E+01
    -10.273 -0.1145E-04  0.8000E+01
    -10.155 -0.1020E-06  0.8000E+01
    -10.038 -0.8165E-09  0.8000E+01
     -9.920 -0.8031E-07  0.8000E+01
     -9.803 -0.8450E-05  0.8000E+01
     -9.685 -0.4283E-03  0.8000E+01
     -9.568 -0.1018E-01  0.7999E+01
     -9.450 -0.1062E+00  0.7986E+01
     -9.333 -0.3843E+00  0.7941E+01
     -9.215  0.3980E+00  0.7988E+01
     -9.098  0.4706E+01  0.8541E+01
     -8.980  0.8070E+01  0.9489E+01
     -8.863  0.4515E+01  0.1002E+02
     -8.745  0.3170E+00  0.1006E+02
     -8.627 -0.3772E+00  0.1001E+02
     -8.510 -0.9934E-01  0.1000E+02
     -8.392 -0.9228E-02  0.1000E+02
     -8.275 -0.3779E-03  0.1000E+02
     -8.157 -0.7264E-05  0.1000E+02
     -8.040 -0.6731E-07  0.1000E+02
     -7.922 -0.3046E-09  0.1000E+02
     -7.805 -0.6802E-12  0.1000E+02
     -7.687  0.0000E+00  0.1000E+02
     -7.570  0.0000E+00  0.1000E+02
     -7.452  0.0000E+00  0.1000E+02
     -7.335  0.0000E+00  0.1000E+02
     -7.217  0.0000E+00  0.1000E+02
     -7.100  0.0000E+00  0.1000E+02
     -6.982  0.0000E+00  0.1000E+02
     -6.865  0.0000E+00  0.1000E+02
     -6.747  0.0000E+00  0.1000E+02
     -6.630  0.0000E+00  0.1000E+02
     -6.512  0.0000E+00  0.1000E+02
     -6.395  0.0000E+00  0.1000E+02
     -6.277  0.0000E+00  0.1000E+02
     -6.160  0.0000E+00  0.1000E+02
     -6.042  0.0000E+00  0.1000E+02
     -5.925  0.0000E+00  0.1000E+02
     -5.807  0.0000E+00  0.1000E+02
     -5.690  0.0000E+00  0.1000E+02
     -5.572  0.0000E+00  0.1000E+02
     -5.454  0.0000E+00  0.1000E+02
     -5.337  0.0000E+00  0.1000E+02
     -5.219  0.0000E+00  0.1000E+02
     -5.102  0.0000E+00  0.1000E+02
     -4.984  0.0000E+00  0.1000E+02
     -4.867  0.0000E+00  0.1000E+02
     -4.749  0.0000E+00  0.1000E+02
     -4.632  0.0000E+00  0.1000E+02
     -4.514  0.0000E+00  0.1000E+02
     -4.397  0.0000E+00  0.1000E+02
     -4.279  0.0000E+00  0.1000E+02
     -4.162 -0.3313E-27  0.1000E+02
     -4.044 -0.3433E-23  0.1000E+02
     -3.927 -0.1773E-19  0.1000E+02
     -3.809 -0.4557E-16  0.1000E+02
     -3.692 -0.5634E-13  0.1000E+02
     -3.574 -0.3561E-10  0.1000E+02
     -3.457 -0.1106E-07  0.1000E+02
     -3.339 -0.1685E-05  0.1000E+02
     -3.222 -0.1246E-03  0.1000E+02
     -3.104 -0.4395E-02  0.9999E+01
     -2.987 -0.7093E-01  0.9991E+01
     -2.869 -0.4682E+00  0.9936E+01
     -2.752 -0.6484E+00  0.9860E+01
     -2.634  0.4134E+01  0.1035E+02
     -2.516  0.1413E+02  0.1201E+02
     -2.399  0.1408E+02  0.1366E+02
     -2.281  0.4081E+01  0.1414E+02
     -2.164 -0.6553E+00  0.1406E+02
     -2.046 -0.4645E+00  0.1401E+02
     -1.929 -0.6993E-01  0.1400E+02
     -1.811 -0.4311E-02  0.1400E+02
     -1.694 -0.1217E-03  0.1400E+02
     -1.576 -0.1638E-05  0.1400E+02
     -1.459 -0.1071E-07  0.1400E+02
     -1.341 -0.3570E-10  0.1400E+02
     -1.224 -0.5682E-09  0.1400E+02
     -1.106 -0.1161E-06  0.1400E+02
     -0.989 -0.1158E-04  0.1400E+02
     -0.871 -0.5558E-03  0.1400E+02
     -0.754 -0.1247E-01  0.1400E+02
     -0.636 -0.1218E+00  0.1398E+02
     -0.519 -0.3962E+00  0.1394E+02
     -0.401  0.5857E+00  0.1401E+02
     -0.284  0.5105E+01  0.1461E+02
     -0.166  0.8035E+01  0.1555E+02
     -0.049  0.4113E+01  0.1603E+02
      0.069  0.1635E+00  0.1605E+02
      0.186 -0.3594E+00  0.1601E+02
      0.304 -0.8598E-01  0.1600E+02
      0.421 -0.8807E-02  0.1600E+02
      0.539 -0.2550E-01  0.1600E+02
      0.657 -0.2156E+00  0.1597E+02
      0.774 -0.6902E+00  0.1589E+02
      0.892  0.3123E+00  0.1593E+02
      1.009  0.6967E+01  0.1675E+02
      1.127  0.1942E+02  0.1903E+02
      1.244  0.3012E+02  0.2257E+02
      1.362  0.2906E+02  0.2598E+02
      1.479  0.1571E+02  0.2783E+02
      1.597  0.2968E+01  0.2818E+02
      1.714 -0.9219E+00  0.2807E+02
      1.832 -0.5028E+00  0.2801E+02
      1.949 -0.8961E-01  0.2800E+02
      2.067 -0.1419E+00  0.2798E+02
      2.184 -0.8414E+00  0.2788E+02
      2.302 -0.1265E+01  0.2774E+02
      2.419  0.5986E+01  0.2844E+02
      2.537  0.2398E+02  0.3126E+02
      2.654  0.3759E+02  0.3567E+02
      2.772  0.4380E+02  0.4082E+02
      2.889  0.4058E+02  0.4559E+02
      3.007  0.2035E+02  0.4798E+02
      3.124  0.2409E+01  0.4826E+02
      3.242 -0.1587E+01  0.4808E+02
      3.359 -0.5840E+00  0.4801E+02
      3.477 -0.7364E-01  0.4800E+02
      3.595 -0.4132E-02  0.4800E+02
      3.712 -0.1098E-03  0.4800E+02
      3.830 -0.1412E-05  0.4800E+02
      3.947 -0.8899E-08  0.4800E+02
      4.065 -0.2764E-10  0.4800E+02
      4.182 -0.4535E-13  0.4800E+02
      4.300  0.0000E+00  0.4800E+02
      4.417  0.0000E+00  0.4800E+02
      4.535  0.0000E+00  0.4800E+02
      4.652  0.0000E+00  0.4800E+02
      4.770  0.0000E+00  0.4800E+02
      4.887  0.0000E+00  0.4800E+02
