       N       E                     dE             d eps       ncg     rms          rms(c)
DAV:   1    -0.146457236965E+02   -0.14646E+02   -0.26948E-06    48   0.351E-03    0.110E-03
DAV:   2    -0.146457236694E+02    0.27037E-07   -0.26533E-07    96   0.119E-03
   1 F= -.14645724E+02 E0= -.14649589E+02  d E =0.115958E-01
