<?xml version="1.0" encoding="ISO-8859-1"?>
<modeling>
 <generator>
  <i name="program" type="string">vasp </i>
  <i name="version" type="string">5.4.1  </i>
  <i name="subversion" type="string">05Feb16 (build Apr 25 2018 11:37:45) complex                          parallel </i>
  <i name="platform" type="string">LinuxIFC </i>
  <i name="date" type="string">2023 01 29 </i>
  <i name="time" type="string">13:38:54 </i>
 </generator>
 <incar>
  <i type="string" name="PREC">normal</i>
  <i name="ENCUT">    350.00000000</i>
  <v type="int" name="KPOINT_BSE">    -1     0     0     0</v>
  <i type="string" name="GGA"> PE</i>
 </incar>
 <kpoints>
  <generation param="Monkhorst-Pack">
   <v type="int" name="divisions">       1        1        1 </v>
   <v name="usershift">      0.00000000       0.00000000       0.00000000 </v>
   <v name="genvec1">      1.00000000       0.00000000       0.00000000 </v>
   <v name="genvec2">      0.00000000       1.00000000       0.00000000 </v>
   <v name="genvec3">      0.00000000       0.00000000       1.00000000 </v>
   <v name="shift">      0.00000000       0.00000000       0.00000000 </v>
  </generation>
  <varray name="kpointlist" >
   <v>       0.00000000       0.00000000       0.00000000 </v>
  </varray>
  <varray name="weights" >
   <v>       1.00000000 </v>
  </varray>
 </kpoints>
 <parameters>
  <separator name="general" >
   <i type="string" name="SYSTEM">unknown system</i>
   <i type="logical" name="LCOMPAT"> F  </i>
  </separator>
  <separator name="electronic" >
   <i type="string" name="PREC">normal</i>
   <i name="ENMAX">    350.00000000</i>
   <i name="ENAUG">    644.87300000</i>
   <i name="EDIFF">      0.00010000</i>
   <i type="int" name="IALGO">    38</i>
   <i type="int" name="IWAVPR">    10</i>
   <i type="int" name="NBANDS">    24</i>
   <i name="NELECT">     10.00000000</i>
   <i type="int" name="TURBO">     0</i>
   <i type="int" name="IRESTART">     0</i>
   <i type="int" name="NREBOOT">     0</i>
   <i type="int" name="NMIN">     0</i>
   <i name="EREF">      0.00000000</i>
   <separator name="electronic smearing" >
    <i type="int" name="ISMEAR">     1</i>
    <i name="SIGMA">      0.20000000</i>
    <i name="KSPACING">      0.50000000</i>
    <i type="logical" name="KGAMMA"> T  </i>
   </separator>
   <separator name="electronic projectors" >
    <i type="logical" name="LREAL"> F  </i>
    <v name="ROPT">      0.00000000      0.00000000</v>
    <i type="int" name="LMAXPAW">  -100</i>
    <i type="int" name="LMAXMIX">     2</i>
    <i type="logical" name="NLSPLINE"> F  </i>
   </separator>
   <separator name="electronic startup" >
    <i type="int" name="ISTART">     1</i>
    <i type="int" name="ICHARG">     0</i>
    <i type="int" name="INIWAV">     1</i>
   </separator>
   <separator name="electronic spin" >
    <i type="int" name="ISPIN">     1</i>
    <i type="logical" name="LNONCOLLINEAR"> F  </i>
    <v name="MAGMOM">      1.00000000      1.00000000</v>
    <i name="NUPDOWN">     -1.00000000</i>
    <i type="logical" name="LSORBIT"> F  </i>
    <v name="SAXIS">      0.00000000      0.00000000      1.00000000</v>
    <i type="logical" name="LSPIRAL"> F  </i>
    <v name="QSPIRAL">      0.00000000      0.00000000      0.00000000</v>
    <i type="logical" name="LZEROZ"> F  </i>
   </separator>
   <separator name="electronic exchange-correlation" >
    <i type="logical" name="LASPH"> F  </i>
    <i type="logical" name="LMETAGGA"> F  </i>
   </separator>
   <separator name="electronic convergence" >
    <i type="int" name="NELM">    60</i>
    <i type="int" name="NELMDL">     0</i>
    <i type="int" name="NELMIN">     2</i>
    <i name="ENINI">    350.00000000</i>
    <separator name="electronic convergence detail" >
     <i type="logical" name="LDIAG"> T  </i>
     <i type="logical" name="LSUBROT"> F  </i>
     <i name="WEIMIN">      0.00000000</i>
     <i name="EBREAK">      0.00000104</i>
     <i name="DEPER">      0.30000000</i>
     <i type="int" name="NRMM">     4</i>
     <i name="TIME">      0.40000000</i>
    </separator>
   </separator>
   <separator name="electronic mixer" >
    <i name="AMIX">      0.40000000</i>
    <i name="BMIX">      1.00000000</i>
    <i name="AMIN">      0.10000000</i>
    <i name="AMIX_MAG">      1.60000000</i>
    <i name="BMIX_MAG">      1.00000000</i>
    <separator name="electronic mixer details" >
     <i type="int" name="IMIX">     4</i>
     <i type="logical" name="MIXFIRST"> F  </i>
     <i type="int" name="MAXMIX">   -45</i>
     <i name="WC">    100.00000000</i>
     <i type="int" name="INIMIX">     1</i>
     <i type="int" name="MIXPRE">     1</i>
     <i type="int" name="MREMOVE">     5</i>
    </separator>
   </separator>
   <separator name="electronic dipolcorrection" >
    <i type="logical" name="LDIPOL"> F  </i>
    <i type="logical" name="LMONO"> F  </i>
    <i type="int" name="IDIPOL">     0</i>
    <i name="EPSILON">      1.00000000</i>
    <v name="DIPOL">   -100.00000000   -100.00000000   -100.00000000</v>
    <i name="EFIELD">      0.00000000</i>
   </separator>
  </separator>
  <separator name="grids" >
   <i type="int" name="NGX">    48</i>
   <i type="int" name="NGY">    48</i>
   <i type="int" name="NGZ">    48</i>
   <i type="int" name="NGXF">    96</i>
   <i type="int" name="NGYF">    96</i>
   <i type="int" name="NGZF">    96</i>
   <i type="logical" name="ADDGRID"> F  </i>
  </separator>
  <separator name="ionic" >
   <i type="int" name="NSW">     0</i>
   <i type="int" name="IBRION">    -1</i>
   <i type="int" name="ISIF">     2</i>
   <i name="PSTRESS">      0.00000000</i>
   <i name="EDIFFG">      0.00100000</i>
   <i type="int" name="NFREE">     0</i>
   <i name="POTIM">      0.50000000</i>
   <i name="SMASS">     -3.00000000</i>
   <i name="SCALEE">      1.00000000</i>
  </separator>
  <separator name="ionic md" >
   <i name="TEBEG">      0.00010000</i>
   <i name="TEEND">      0.00010000</i>
   <i type="int" name="NBLOCK">     1</i>
   <i type="int" name="KBLOCK">     1</i>
   <i type="int" name="NPACO">   256</i>
   <i name="APACO">     16.00000000</i>
  </separator>
  <separator name="symmetry" >
   <i type="int" name="ISYM">     2</i>
   <i name="SYMPREC">      0.00001000</i>
  </separator>
  <separator name="dos" >
   <i type="logical" name="LORBIT"> F  </i>
   <v name="RWIGS">     -1.00000000     -1.00000000</v>
   <i type="int" name="NEDOS">   301</i>
   <i name="EMIN">     10.00000000</i>
   <i name="EMAX">    -10.00000000</i>
   <i name="EFERMI">      0.00000000</i>
  </separator>
  <separator name="writing" >
   <i type="int" name="NWRITE">     2</i>
   <i type="logical" name="LWAVE"> T  </i>
   <i type="logical" name="LCHARG"> T  </i>
   <i type="logical" name="LPARD"> F  </i>
   <i type="logical" name="LVTOT"> F  </i>
   <i type="logical" name="LVHAR"> F  </i>
   <i type="logical" name="LELF"> F  </i>
   <i type="logical" name="LOPTICS"> F  </i>
   <v name="STM">      0.00000000      0.00000000      0.00000000      0.00000000      0.00000000      0.00000000      0.00000000</v>
  </separator>
  <separator name="performance" >
   <i type="int" name="NPAR">    24</i>
   <i type="int" name="NSIM">     4</i>
   <i type="int" name="NBLK">    -1</i>
   <i type="logical" name="LPLANE"> T  </i>
   <i type="logical" name="LSCALAPACK"> F  </i>
   <i type="logical" name="LSCAAWARE"> F  </i>
   <i type="logical" name="LSCALU"> F  </i>
   <i type="logical" name="LASYNC"> F  </i>
   <i type="logical" name="LORBITALREAL"> F  </i>
  </separator>
  <separator name="miscellaneous" >
   <i type="int" name="IDIOT">     3</i>
   <i type="logical" name="LMUSIC"> F  </i>
   <v name="POMASS">     12.01100000     16.00000000</v>
   <v name="DARWINR">      0.00000000      0.00000000</v>
   <v name="DARWINV">      1.00000000      1.00000000</v>
   <i type="logical" name="LCORR"> T  </i>
  </separator>
  <i type="logical" name="GGA_COMPAT"> T  </i>
  <i type="logical" name="LBERRY"> F  </i>
  <i type="int" name="ICORELEVEL">     0</i>
  <i type="logical" name="LDAU"> F  </i>
  <i type="int" name="I_CONSTRAINED_M">     0</i>
  <separator name="electronic exchange-correlation" >
   <i type="string" name="GGA">PE</i>
   <i type="int" name="VOSKOWN">     0</i>
   <i type="logical" name="LHFCALC"> F  </i>
   <i type="string" name="PRECFOCK"></i>
   <i type="logical" name="LSYMGRAD"> F  </i>
   <i type="logical" name="LHFONE"> F  </i>
   <i type="logical" name="LRHFCALC"> F  </i>
   <i type="logical" name="LTHOMAS"> F  </i>
   <i type="logical" name="LMODELHF"> F  </i>
   <i name="ENCUT4O">     -1.00000000</i>
   <i type="int" name="EXXOEP">     0</i>
   <i type="int" name="FOURORBIT">     0</i>
   <i name="AEXX">      0.00000000</i>
   <i name="HFALPHA">      0.00000000</i>
   <i name="MCALPHA">      0.00000000</i>
   <i name="ALDAX">      1.00000000</i>
   <i name="AGGAX">      1.00000000</i>
   <i name="ALDAC">      1.00000000</i>
   <i name="AGGAC">      1.00000000</i>
   <i type="int" name="NKREDX">     1</i>
   <i type="int" name="NKREDY">     1</i>
   <i type="int" name="NKREDZ">     1</i>
   <i type="logical" name="SHIFTRED"> F  </i>
   <i type="logical" name="ODDONLY"> F  </i>
   <i type="logical" name="EVENONLY"> F  </i>
   <i type="int" name="LMAXFOCK">     0</i>
   <i type="int" name="NMAXFOCKAE">     0</i>
   <i type="logical" name="LFOCKAEDFT"> F  </i>
   <i name="HFSCREEN">      0.00000000</i>
   <i name="HFSCREENC">      0.00000000</i>
   <i type="int" name="NBANDSGWLOW">     0</i>
  </separator>
  <separator name="vdW DFT" >
   <i type="logical" name="LUSE_VDW"> F  </i>
   <i name="Zab_VDW">     -0.84910000</i>
   <i name="PARAM1">      0.12340000</i>
   <i name="PARAM2">      1.00000000</i>
   <i name="PARAM3">      0.00000000</i>
  </separator>
  <separator name="model GW" >
   <i type="int" name="MODEL_GW">     0</i>
   <i name="MODEL_EPS0">    300.00000000</i>
   <i name="MODEL_ALPHA">      1.00000000</i>
  </separator>
  <separator name="linear response parameters" >
   <i type="logical" name="LEPSILON"> F  </i>
   <i type="logical" name="LRPA"> F  </i>
   <i type="logical" name="LNABLA"> F  </i>
   <i type="logical" name="LVEL"> F  </i>
   <i type="int" name="KINTER">     0</i>
   <i name="CSHIFT">      0.10000000</i>
   <i name="OMEGAMAX">     -1.00000000</i>
   <i name="DEG_THRESHOLD">      0.00200000</i>
  </separator>
  <separator name="orbital magnetization" >
   <i type="logical" name="NUCIND"> F  </i>
   <v name="MAGPOS">      0.00000000      0.00000000      0.00000000</v>
   <i type="logical" name="LNICSALL"> T  </i>
   <i type="logical" name="ORBITALMAG"> F  </i>
   <i type="logical" name="LMAGBLOCH"> F  </i>
   <i type="logical" name="LCHIMAG"> F  </i>
   <i type="logical" name="LGAUGE"> T  </i>
   <i type="int" name="MAGATOM">     0</i>
   <v name="MAGDIPOL">      0.00000000      0.00000000      0.00000000</v>
   <v name="AVECCONST">      0.00000000      0.00000000      0.00000000</v>
  </separator>
  <separator name="response functions" >
   <i type="logical" name="LADDER"> F  </i>
   <i type="logical" name="LFXC"> F  </i>
   <i type="logical" name="LHARTREE"> T  </i>
   <i type="int" name="IBSE">     0</i>
   <v type="int" name="KPOINT">    -1     0     0     0</v>
   <i type="logical" name="LTCTE"> F  </i>
   <i type="logical" name="LTETE"> F  </i>
   <i type="logical" name="LTRIPLET"> F  </i>
   <i type="logical" name="LFXCEPS"> F  </i>
   <i type="logical" name="LFXHEG"> F  </i>
   <i type="int" name="NATURALO">     0</i>
   <i type="logical" name="L2ORDER"> F  </i>
   <i type="logical" name="LUSEW"> F  </i>
   <i name="ENCUTGW">     -2.00000000</i>
   <i name="ENCUTGWSOFT">     -2.00000000</i>
   <i name="ENCUTLF">     -1.00000000</i>
   <i type="int" name="LMAXMP2">    -1</i>
   <i name="SCISSOR">      0.00000000</i>
   <i type="int" name="NOMEGA">     0</i>
   <i type="int" name="NOMEGAR">     0</i>
   <i type="int" name="NBANDSGW">    -1</i>
   <i type="int" name="NBANDSO">    -1</i>
   <i type="int" name="NBANDSV">    -1</i>
   <i type="int" name="NELM">     1</i>
   <i type="int" name="NELMHF">     1</i>
   <i type="int" name="DIM">     3</i>
   <i type="int" name="ANTIRES">     0</i>
   <i name="OMEGAMAX">    -30.00000000</i>
   <i name="OMEGAMIN">    -30.00000000</i>
   <i name="OMEGATL">   -200.00000000</i>
   <i type="int" name="OMEGAGRID">     0</i>
   <i name="CSHIFT">     -0.10000000</i>
   <i type="logical" name="SELFENERGY"> F  </i>
   <i type="logical" name="LSPECTRAL"> F  </i>
   <i type="logical" name="LSPECTRALGW"> F  </i>
   <i type="logical" name="LSINGLES"> F  </i>
   <i type="logical" name="LFERMIGW"> F  </i>
   <i type="logical" name="ODDONLYGW"> F  </i>
   <i type="logical" name="EVENONLYGW"> F  </i>
   <i type="int" name="NKREDLFX">     1</i>
   <i type="int" name="NKREDLFY">     1</i>
   <i type="int" name="NKREDLFZ">     1</i>
   <i type="int" name="MAXMEM">  1800</i>
   <i type="int" name="TELESCOPE">     0</i>
   <i type="int" name="TAUPAR">     1</i>
   <i type="int" name="OMEGAPAR">    -1</i>
   <i name="LAMBDA">      1.00000000</i>
  </separator>
  <separator name="External order field" >
   <i name="OFIELD_KAPPA">      0.00000000</i>
   <v name="OFIELD_K">      0.00000000      0.00000000      0.00000000</v>
   <i name="OFIELD_Q6_NEAR">      0.00000000</i>
   <i name="OFIELD_Q6_FAR">      0.00000000</i>
   <i name="OFIELD_A">      0.00000000</i>
  </separator>
 </parameters>
 <atominfo>
  <atoms>       2 </atoms>
  <types>       2 </types>
  <array name="atoms" >
   <dimension dim="1">ion</dimension>
   <field type="string">element</field>
   <field type="int">atomtype</field>
   <set>
    <rc><c>C </c><c>   1</c></rc>
    <rc><c>O </c><c>   2</c></rc>
   </set>
  </array>
  <array name="atomtypes" >
   <dimension dim="1">type</dimension>
   <field type="int">atomspertype</field>
   <field type="string">element</field>
   <field>mass</field>
   <field>valence</field>
   <field type="string">pseudopotential</field>
   <set>
    <rc><c>   1</c><c>C </c><c>     12.01100000</c><c>      4.00000000</c><c>  PAW_PBE C 08Apr2002                   </c></rc>
    <rc><c>   1</c><c>O </c><c>     16.00000000</c><c>      6.00000000</c><c>  PAW_PBE O 08Apr2002                   </c></rc>
   </set>
  </array>
 </atominfo>
 <structure name="initialpos" >
  <crystal>
   <varray name="basis" >
    <v>      10.00000000       0.00000000       0.00000000 </v>
    <v>       0.00000000      10.00000000       0.00000000 </v>
    <v>       0.00000000       0.00000000      10.00000000 </v>
   </varray>
   <i name="volume">   1000.00000000 </i>
   <varray name="rec_basis" >
    <v>       0.10000000       0.00000000       0.00000000 </v>
    <v>       0.00000000       0.10000000       0.00000000 </v>
    <v>       0.00000000       0.00000000       0.10000000 </v>
   </varray>
  </crystal>
  <varray name="positions" >
   <v>       0.44000000       0.50000000       0.50000000 </v>
   <v>       0.56000000       0.50000000       0.50000000 </v>
  </varray>
 </structure>
 <calculation>
  <scstep>
   <time name="dav">    0.04    0.04</time>
   <time name="total">    0.09    0.11</time>
   <energy>
    <i name="alphaZ">      0.43695755 </i>
    <i name="ewald">     84.77797003 </i>
    <i name="hartreedc">   -569.17341788 </i>
    <i name="XCdc">     39.96924171 </i>
    <i name="pawpsdc">    788.96933392 </i>
    <i name="pawaedc">   -791.24809472 </i>
    <i name="eentropy">      0.01159581 </i>
    <i name="bandstr">   -147.46054059 </i>
    <i name="atom">    579.07123046 </i>
    <i name="e_fr_energy">    -14.64572370 </i>
    <i name="e_wo_entrp">    -14.65731951 </i>
    <i name="e_0_energy">    -14.64958897 </i>
   </energy>
  </scstep>
  <scstep>
   <time name="dav">    0.07    0.07</time>
   <time name="total">    0.10    0.10</time>
   <energy>
    <i name="alphaZ">      0.43695755 </i>
    <i name="ewald">     84.77797003 </i>
    <i name="hartreedc">   -569.17087228 </i>
    <i name="XCdc">     39.96908967 </i>
    <i name="pawpsdc">    788.96894694 </i>
    <i name="pawaedc">   -791.24767008 </i>
    <i name="eentropy">      0.01159581 </i>
    <i name="bandstr">   -147.46297178 </i>
    <i name="atom">    579.07123046 </i>
    <i name="e_fr_energy">    -14.64572367 </i>
    <i name="e_wo_entrp">    -14.65731948 </i>
    <i name="e_0_energy">    -14.64958894 </i>
   </energy>
  </scstep>
  <structure>
   <crystal>
    <varray name="basis" >
     <v>      10.00000000       0.00000000       0.00000000 </v>
     <v>       0.00000000      10.00000000       0.00000000 </v>
     <v>       0.00000000       0.00000000      10.00000000 </v>
    </varray>
    <i name="volume">   1000.00000000 </i>
    <varray name="rec_basis" >
     <v>       0.10000000       0.00000000       0.00000000 </v>
     <v>       0.00000000       0.10000000       0.00000000 </v>
     <v>       0.00000000       0.00000000       0.10000000 </v>
    </varray>
   </crystal>
   <varray name="positions" >
    <v>       0.44000000       0.50000000       0.50000000 </v>
    <v>       0.56000000       0.50000000       0.50000000 </v>
   </varray>
  </structure>
  <varray name="forces" >
   <v>       5.17593899       0.00000000       0.00000000 </v>
   <v>      -5.17593899       0.00000000      -0.00000000 </v>
  </varray>
  <varray name="stress" >
   <v>     -13.87137377       0.00000000       0.00000000 </v>
   <v>       0.00000000      -3.75377659       0.00000000 </v>
   <v>       0.00000000       0.00000000      -3.75377659 </v>
  </varray>
  <energy>
   <i name="e_fr_energy">    -14.64572367 </i>
   <i name="e_wo_entrp">    -14.64958894 </i>
   <i name="e_0_energy">      0.01159581 </i>
  </energy>
  <time name="totalsc">    1.55    1.66</time>
  <eigenvalues>
   <array>
    <dimension dim="1">band</dimension>
    <dimension dim="2">kpoint</dimension>
    <dimension dim="3">spin</dimension>
    <field>eigene</field>
    <field>occ</field>
    <set>
     <set comment="spin 1">
      <set comment="kpoint 1">
       <r>  -28.3685    1.0000 </r>
       <r>  -13.9967    1.0000 </r>
       <r>  -11.1627    1.0000 </r>
       <r>  -11.1627    1.0000 </r>
       <r>   -9.0409    1.0000 </r>
       <r>   -2.5168    0.0000 </r>
       <r>   -2.5168    0.0000 </r>
       <r>   -0.2356    0.0000 </r>
       <r>    1.0280    0.0000 </r>
       <r>    1.1670    0.0000 </r>
       <r>    1.1670    0.0000 </r>
       <r>    1.2749    0.0000 </r>
       <r>    1.3053    0.0000 </r>
       <r>    1.3934    0.0000 </r>
       <r>    2.5046    0.0000 </r>
       <r>    2.5218    0.0000 </r>
       <r>    2.5878    0.0000 </r>
       <r>    2.5878    0.0000 </r>
       <r>    2.7377    0.0000 </r>
       <r>    2.7377    0.0000 </r>
       <r>    2.7748    0.0000 </r>
       <r>    2.8092    0.0000 </r>
       <r>    2.8818    0.0000 </r>
       <r>    2.8872    0.0000 </r>
      </set>
     </set>
    </set>
   </array>
  </eigenvalues>
  <separator name="orbital magnetization" >
   <v name="MAGDIPOLOUT">      0.00000000      0.00000000      0.00000000</v>
  </separator>
  <dos>
   <i name="efermi">     -8.87249341 </i>
   <total>
    <array>
     <dimension dim="1">gridpoints</dimension>
     <dimension dim="2">spin</dimension>
     <field>energy</field>
     <field>total</field>
     <field>integrated</field>
     <set>
      <set comment="spin 1">
       <r>   -30.3685     0.0000     0.0000 </r>
       <r>   -30.2510     0.0000     0.0000 </r>
       <r>   -30.1335     0.0000     0.0000 </r>
       <r>   -30.0160    -0.0000    -0.0000 </r>
       <r>   -29.8985    -0.0000    -0.0000 </r>
       <r>   -29.7809    -0.0000    -0.0000 </r>
       <r>   -29.6634    -0.0000    -0.0000 </r>
       <r>   -29.5459    -0.0000    -0.0000 </r>
       <r>   -29.4284    -0.0000    -0.0000 </r>
       <r>   -29.3109    -0.0000    -0.0000 </r>
       <r>   -29.1933    -0.0000    -0.0000 </r>
       <r>   -29.0758    -0.0001    -0.0000 </r>
       <r>   -28.9583    -0.0021    -0.0002 </r>
       <r>   -28.8408    -0.0337    -0.0042 </r>
       <r>   -28.7233    -0.2274    -0.0309 </r>
       <r>   -28.6058    -0.3361    -0.0704 </r>
       <r>   -28.4882     1.9723     0.1614 </r>
       <r>   -28.3707     6.9797     0.9816 </r>
       <r>   -28.2532     7.1222     1.8186 </r>
       <r>   -28.1357     2.1367     2.0697 </r>
       <r>   -28.0182    -0.3149     2.0327 </r>
       <r>   -27.9006    -0.2390     2.0046 </r>
       <r>   -27.7831    -0.0368     2.0003 </r>
       <r>   -27.6656    -0.0023     2.0000 </r>
       <r>   -27.5481    -0.0001     2.0000 </r>
       <r>   -27.4306    -0.0000     2.0000 </r>
       <r>   -27.3130    -0.0000     2.0000 </r>
       <r>   -27.1955    -0.0000     2.0000 </r>
       <r>   -27.0780    -0.0000     2.0000 </r>
       <r>   -26.9605     0.0000     2.0000 </r>
       <r>   -26.8430     0.0000     2.0000 </r>
       <r>   -26.7254     0.0000     2.0000 </r>
       <r>   -26.6079     0.0000     2.0000 </r>
       <r>   -26.4904     0.0000     2.0000 </r>
       <r>   -26.3729     0.0000     2.0000 </r>
       <r>   -26.2554     0.0000     2.0000 </r>
       <r>   -26.1378     0.0000     2.0000 </r>
       <r>   -26.0203     0.0000     2.0000 </r>
       <r>   -25.9028     0.0000     2.0000 </r>
       <r>   -25.7853     0.0000     2.0000 </r>
       <r>   -25.6678     0.0000     2.0000 </r>
       <r>   -25.5503     0.0000     2.0000 </r>
       <r>   -25.4327     0.0000     2.0000 </r>
       <r>   -25.3152     0.0000     2.0000 </r>
       <r>   -25.1977     0.0000     2.0000 </r>
       <r>   -25.0802     0.0000     2.0000 </r>
       <r>   -24.9627     0.0000     2.0000 </r>
       <r>   -24.8451     0.0000     2.0000 </r>
       <r>   -24.7276     0.0000     2.0000 </r>
       <r>   -24.6101     0.0000     2.0000 </r>
       <r>   -24.4926     0.0000     2.0000 </r>
       <r>   -24.3751     0.0000     2.0000 </r>
       <r>   -24.2575     0.0000     2.0000 </r>
       <r>   -24.1400     0.0000     2.0000 </r>
       <r>   -24.0225     0.0000     2.0000 </r>
       <r>   -23.9050     0.0000     2.0000 </r>
       <r>   -23.7875     0.0000     2.0000 </r>
       <r>   -23.6699     0.0000     2.0000 </r>
       <r>   -23.5524     0.0000     2.0000 </r>
       <r>   -23.4349     0.0000     2.0000 </r>
       <r>   -23.3174     0.0000     2.0000 </r>
       <r>   -23.1999     0.0000     2.0000 </r>
       <r>   -23.0823     0.0000     2.0000 </r>
       <r>   -22.9648     0.0000     2.0000 </r>
       <r>   -22.8473     0.0000     2.0000 </r>
       <r>   -22.7298     0.0000     2.0000 </r>
       <r>   -22.6123     0.0000     2.0000 </r>
       <r>   -22.4948     0.0000     2.0000 </r>
       <r>   -22.3772     0.0000     2.0000 </r>
       <r>   -22.2597     0.0000     2.0000 </r>
       <r>   -22.1422     0.0000     2.0000 </r>
       <r>   -22.0247     0.0000     2.0000 </r>
       <r>   -21.9072     0.0000     2.0000 </r>
       <r>   -21.7896     0.0000     2.0000 </r>
       <r>   -21.6721     0.0000     2.0000 </r>
       <r>   -21.5546     0.0000     2.0000 </r>
       <r>   -21.4371     0.0000     2.0000 </r>
       <r>   -21.3196     0.0000     2.0000 </r>
       <r>   -21.2020     0.0000     2.0000 </r>
       <r>   -21.0845     0.0000     2.0000 </r>
       <r>   -20.9670     0.0000     2.0000 </r>
       <r>   -20.8495     0.0000     2.0000 </r>
       <r>   -20.7320     0.0000     2.0000 </r>
       <r>   -20.6144     0.0000     2.0000 </r>
       <r>   -20.4969     0.0000     2.0000 </r>
       <r>   -20.3794     0.0000     2.0000 </r>
       <r>   -20.2619     0.0000     2.0000 </r>
       <r>   -20.1444     0.0000     2.0000 </r>
       <r>   -20.0269     0.0000     2.0000 </r>
       <r>   -19.9093     0.0000     2.0000 </r>
       <r>   -19.7918     0.0000     2.0000 </r>
       <r>   -19.6743     0.0000     2.0000 </r>
       <r>   -19.5568     0.0000     2.0000 </r>
       <r>   -19.4393     0.0000     2.0000 </r>
       <r>   -19.3217     0.0000     2.0000 </r>
       <r>   -19.2042     0.0000     2.0000 </r>
       <r>   -19.0867     0.0000     2.0000 </r>
       <r>   -18.9692     0.0000     2.0000 </r>
       <r>   -18.8517     0.0000     2.0000 </r>
       <r>   -18.7341     0.0000     2.0000 </r>
       <r>   -18.6166     0.0000     2.0000 </r>
       <r>   -18.4991     0.0000     2.0000 </r>
       <r>   -18.3816     0.0000     2.0000 </r>
       <r>   -18.2641     0.0000     2.0000 </r>
       <r>   -18.1465     0.0000     2.0000 </r>
       <r>   -18.0290     0.0000     2.0000 </r>
       <r>   -17.9115     0.0000     2.0000 </r>
       <r>   -17.7940     0.0000     2.0000 </r>
       <r>   -17.6765     0.0000     2.0000 </r>
       <r>   -17.5589     0.0000     2.0000 </r>
       <r>   -17.4414     0.0000     2.0000 </r>
       <r>   -17.3239     0.0000     2.0000 </r>
       <r>   -17.2064     0.0000     2.0000 </r>
       <r>   -17.0889     0.0000     2.0000 </r>
       <r>   -16.9714     0.0000     2.0000 </r>
       <r>   -16.8538     0.0000     2.0000 </r>
       <r>   -16.7363     0.0000     2.0000 </r>
       <r>   -16.6188     0.0000     2.0000 </r>
       <r>   -16.5013     0.0000     2.0000 </r>
       <r>   -16.3838     0.0000     2.0000 </r>
       <r>   -16.2662     0.0000     2.0000 </r>
       <r>   -16.1487     0.0000     2.0000 </r>
       <r>   -16.0312     0.0000     2.0000 </r>
       <r>   -15.9137     0.0000     2.0000 </r>
       <r>   -15.7962     0.0000     2.0000 </r>
       <r>   -15.6786    -0.0000     2.0000 </r>
       <r>   -15.5611    -0.0000     2.0000 </r>
       <r>   -15.4436    -0.0000     2.0000 </r>
       <r>   -15.3261    -0.0000     2.0000 </r>
       <r>   -15.2086    -0.0000     2.0000 </r>
       <r>   -15.0910    -0.0000     2.0000 </r>
       <r>   -14.9735    -0.0000     2.0000 </r>
       <r>   -14.8560    -0.0000     2.0000 </r>
       <r>   -14.7385    -0.0000     2.0000 </r>
       <r>   -14.6210    -0.0008     1.9999 </r>
       <r>   -14.5034    -0.0161     1.9980 </r>
       <r>   -14.3859    -0.1444     1.9810 </r>
       <r>   -14.2684    -0.4033     1.9336 </r>
       <r>   -14.1509     0.8679     2.0356 </r>
       <r>   -14.0334     5.6166     2.6957 </r>
       <r>   -13.9159     7.9196     3.6264 </r>
       <r>   -13.7983     3.5922     4.0486 </r>
       <r>   -13.6808    -0.0046     4.0480 </r>
       <r>   -13.5633    -0.3322     4.0090 </r>
       <r>   -13.4458    -0.0705     4.0007 </r>
       <r>   -13.3283    -0.0057     4.0000 </r>
       <r>   -13.2107    -0.0002     4.0000 </r>
       <r>   -13.0932    -0.0000     4.0000 </r>
       <r>   -12.9757    -0.0000     4.0000 </r>
       <r>   -12.8582    -0.0000     4.0000 </r>
       <r>   -12.7407    -0.0000     4.0000 </r>
       <r>   -12.6231    -0.0000     4.0000 </r>
       <r>   -12.5056    -0.0000     4.0000 </r>
       <r>   -12.3881    -0.0000     4.0000 </r>
       <r>   -12.2706    -0.0000     4.0000 </r>
       <r>   -12.1531    -0.0000     4.0000 </r>
       <r>   -12.0355    -0.0000     4.0000 </r>
       <r>   -11.9180    -0.0000     4.0000 </r>
       <r>   -11.8005    -0.0010     3.9999 </r>
       <r>   -11.6830    -0.0237     3.9971 </r>
       <r>   -11.5655    -0.2353     3.9694 </r>
       <r>   -11.4479    -0.7872     3.8769 </r>
       <r>   -11.3304     1.0703     4.0027 </r>
       <r>   -11.2129    10.0062     5.1786 </r>
       <r>   -11.0954    16.0974     7.0704 </r>
       <r>   -10.9779     8.4321     8.0613 </r>
       <r>   -10.8604     0.4016     8.1085 </r>
       <r>   -10.7428    -0.7286     8.0229 </r>
       <r>   -10.6253    -0.1785     8.0019 </r>
       <r>   -10.5078    -0.0158     8.0001 </r>
       <r>   -10.3903    -0.0006     8.0000 </r>
       <r>   -10.2728    -0.0000     8.0000 </r>
       <r>   -10.1552    -0.0000     8.0000 </r>
       <r>   -10.0377    -0.0000     8.0000 </r>
       <r>    -9.9202    -0.0000     8.0000 </r>
       <r>    -9.8027    -0.0000     8.0000 </r>
       <r>    -9.6852    -0.0004     7.9999 </r>
       <r>    -9.5676    -0.0102     7.9988 </r>
       <r>    -9.4501    -0.1062     7.9863 </r>
       <r>    -9.3326    -0.3843     7.9411 </r>
       <r>    -9.2151     0.3980     7.9879 </r>
       <r>    -9.0976     4.7059     8.5409 </r>
       <r>    -8.9800     8.0700     9.4893 </r>
       <r>    -8.8625     4.5148    10.0199 </r>
       <r>    -8.7450     0.3170    10.0571 </r>
       <r>    -8.6275    -0.3772    10.0128 </r>
       <r>    -8.5100    -0.0993    10.0011 </r>
       <r>    -8.3925    -0.0092    10.0000 </r>
       <r>    -8.2749    -0.0004    10.0000 </r>
       <r>    -8.1574    -0.0000    10.0000 </r>
       <r>    -8.0399    -0.0000    10.0000 </r>
       <r>    -7.9224    -0.0000    10.0000 </r>
       <r>    -7.8049    -0.0000    10.0000 </r>
       <r>    -7.6873     0.0000    10.0000 </r>
       <r>    -7.5698     0.0000    10.0000 </r>
       <r>    -7.4523     0.0000    10.0000 </r>
       <r>    -7.3348     0.0000    10.0000 </r>
       <r>    -7.2173     0.0000    10.0000 </r>
       <r>    -7.0997     0.0000    10.0000 </r>
       <r>    -6.9822     0.0000    10.0000 </r>
       <r>    -6.8647     0.0000    10.0000 </r>
       <r>    -6.7472     0.0000    10.0000 </r>
       <r>    -6.6297     0.0000    10.0000 </r>
       <r>    -6.5121     0.0000    10.0000 </r>
       <r>    -6.3946     0.0000    10.0000 </r>
       <r>    -6.2771     0.0000    10.0000 </r>
       <r>    -6.1596     0.0000    10.0000 </r>
       <r>    -6.0421     0.0000    10.0000 </r>
       <r>    -5.9245     0.0000    10.0000 </r>
       <r>    -5.8070     0.0000    10.0000 </r>
       <r>    -5.6895     0.0000    10.0000 </r>
       <r>    -5.5720     0.0000    10.0000 </r>
       <r>    -5.4545     0.0000    10.0000 </r>
       <r>    -5.3370     0.0000    10.0000 </r>
       <r>    -5.2194     0.0000    10.0000 </r>
       <r>    -5.1019     0.0000    10.0000 </r>
       <r>    -4.9844     0.0000    10.0000 </r>
       <r>    -4.8669     0.0000    10.0000 </r>
       <r>    -4.7494     0.0000    10.0000 </r>
       <r>    -4.6318     0.0000    10.0000 </r>
       <r>    -4.5143     0.0000    10.0000 </r>
       <r>    -4.3968     0.0000    10.0000 </r>
       <r>    -4.2793     0.0000    10.0000 </r>
       <r>    -4.1618    -0.0000    10.0000 </r>
       <r>    -4.0442    -0.0000    10.0000 </r>
       <r>    -3.9267    -0.0000    10.0000 </r>
       <r>    -3.8092    -0.0000    10.0000 </r>
       <r>    -3.6917    -0.0000    10.0000 </r>
       <r>    -3.5742    -0.0000    10.0000 </r>
       <r>    -3.4566    -0.0000    10.0000 </r>
       <r>    -3.3391    -0.0000    10.0000 </r>
       <r>    -3.2216    -0.0001    10.0000 </r>
       <r>    -3.1041    -0.0044     9.9995 </r>
       <r>    -2.9866    -0.0709     9.9911 </r>
       <r>    -2.8690    -0.4682     9.9361 </r>
       <r>    -2.7515    -0.6484     9.8599 </r>
       <r>    -2.6340     4.1344    10.3458 </r>
       <r>    -2.5165    14.1270    12.0060 </r>
       <r>    -2.3990    14.0808    13.6607 </r>
       <r>    -2.2815     4.0810    14.1403 </r>
       <r>    -2.1639    -0.6553    14.0633 </r>
       <r>    -2.0464    -0.4645    14.0087 </r>
       <r>    -1.9289    -0.0699    14.0005 </r>
       <r>    -1.8114    -0.0043    14.0000 </r>
       <r>    -1.6939    -0.0001    14.0000 </r>
       <r>    -1.5763    -0.0000    14.0000 </r>
       <r>    -1.4588    -0.0000    14.0000 </r>
       <r>    -1.3413    -0.0000    14.0000 </r>
       <r>    -1.2238    -0.0000    14.0000 </r>
       <r>    -1.1063    -0.0000    14.0000 </r>
       <r>    -0.9887    -0.0000    14.0000 </r>
       <r>    -0.8712    -0.0006    13.9999 </r>
       <r>    -0.7537    -0.0125    13.9985 </r>
       <r>    -0.6362    -0.1218    13.9842 </r>
       <r>    -0.5187    -0.3962    13.9376 </r>
       <r>    -0.4011     0.5857    14.0064 </r>
       <r>    -0.2836     5.1053    14.6064 </r>
       <r>    -0.1661     8.0353    15.5507 </r>
       <r>    -0.0486     4.1128    16.0340 </r>
       <r>     0.0689     0.1635    16.0533 </r>
       <r>     0.1865    -0.3594    16.0110 </r>
       <r>     0.3040    -0.0860    16.0009 </r>
       <r>     0.4215    -0.0088    15.9999 </r>
       <r>     0.5390    -0.0255    15.9969 </r>
       <r>     0.6565    -0.2156    15.9715 </r>
       <r>     0.7740    -0.6902    15.8904 </r>
       <r>     0.8916     0.3123    15.9271 </r>
       <r>     1.0091     6.9666    16.7458 </r>
       <r>     1.1266    19.4193    19.0280 </r>
       <r>     1.2441    30.1185    22.5675 </r>
       <r>     1.3616    29.0603    25.9826 </r>
       <r>     1.4792    15.7090    27.8287 </r>
       <r>     1.5967     2.9678    28.1775 </r>
       <r>     1.7142    -0.9219    28.0692 </r>
       <r>     1.8317    -0.5028    28.0101 </r>
       <r>     1.9492    -0.0896    27.9995 </r>
       <r>     2.0668    -0.1419    27.9829 </r>
       <r>     2.1843    -0.8414    27.8840 </r>
       <r>     2.3018    -1.2649    27.7353 </r>
       <r>     2.4193     5.9864    28.4389 </r>
       <r>     2.5368    23.9775    31.2567 </r>
       <r>     2.6544    37.5851    35.6736 </r>
       <r>     2.7719    43.8010    40.8211 </r>
       <r>     2.8894    40.5791    45.5899 </r>
       <r>     3.0069    20.3483    47.9812 </r>
       <r>     3.1244     2.4085    48.2643 </r>
       <r>     3.2420    -1.5870    48.0778 </r>
       <r>     3.3595    -0.5840    48.0092 </r>
       <r>     3.4770    -0.0736    48.0005 </r>
       <r>     3.5945    -0.0041    48.0000 </r>
       <r>     3.7120    -0.0001    48.0000 </r>
       <r>     3.8295    -0.0000    48.0000 </r>
       <r>     3.9471    -0.0000    48.0000 </r>
       <r>     4.0646    -0.0000    48.0000 </r>
       <r>     4.1821    -0.0000    48.0000 </r>
       <r>     4.2996     0.0000    48.0000 </r>
       <r>     4.4171     0.0000    48.0000 </r>
       <r>     4.5347     0.0000    48.0000 </r>
       <r>     4.6522     0.0000    48.0000 </r>
       <r>     4.7697     0.0000    48.0000 </r>
       <r>     4.8872     0.0000    48.0000 </r>
      </set>
     </set>
    </array>
   </total>
  </dos>
 </calculation>
 <structure name="finalpos" >
  <crystal>
   <varray name="basis" >
    <v>      10.00000000       0.00000000       0.00000000 </v>
    <v>       0.00000000      10.00000000       0.00000000 </v>
    <v>       0.00000000       0.00000000      10.00000000 </v>
   </varray>
   <i name="volume">   1000.00000000 </i>
   <varray name="rec_basis" >
    <v>       0.10000000       0.00000000       0.00000000 </v>
    <v>       0.00000000       0.10000000       0.00000000 </v>
    <v>       0.00000000       0.00000000       0.10000000 </v>
   </varray>
  </crystal>
  <varray name="positions" >
   <v>       0.44000000       0.50000000       0.50000000 </v>
   <v>       0.56000000       0.50000000       0.50000000 </v>
  </varray>
 </structure>
</modeling>
