       N       E                     dE             d eps       ncg     rms          rms(c)
DAV:   1    -0.445883308807E+03   -0.44588E+03   -0.20193E+04    48   0.249E+02    0.461E+01
DAV:   2    -0.923187858931E+03   -0.47730E+03   -0.72639E+03    96   0.167E+02    0.642E+01
DAV:   3    -0.971126506819E+03   -0.47939E+02   -0.11060E+03    96   0.145E+02    0.103E+02
DAV:   4    -0.965699895696E+03    0.54266E+01   -0.15338E+01    72   0.170E+01    0.101E+02
DAV:   5    -0.968005481908E+03   -0.23056E+01   -0.25965E-01    96   0.213E+00    0.103E+02
DAV:   6    -0.860431256289E+03    0.10757E+03   -0.32419E+01    72   0.209E+01    0.755E+01
DAV:   7    -0.346780068824E+04   -0.26074E+04   -0.22863E+04    48   0.531E+02    0.724E+02
DAV:   8    -0.301001078760E+04    0.45779E+03   -0.65499E+03    48   0.265E+02    0.890E+02
