   2   2   0   0
  0.5000000E+03  0.1000000E-08  0.1000000E-08  0.1000000E-08  0.5000000E-15
  1.000000000000000E-004
  CAR 
 unknown system                          
      4.48165756    -30.78136214  301     -8.85951822      1.00000000
    -30.781  0.0000E+00  0.0000E+00
    -30.664  0.0000E+00  0.0000E+00
    -30.546  0.0000E+00  0.0000E+00
    -30.429  0.0000E+00  0.0000E+00
    -30.311  0.0000E+00  0.0000E+00
    -30.194  0.0000E+00  0.0000E+00
    -30.076  0.0000E+00  0.0000E+00
    -29.959  0.0000E+00  0.0000E+00
    -29.841  0.0000E+00  0.0000E+00
    -29.723  0.0000E+00  0.0000E+00
    -29.606  0.0000E+00  0.0000E+00
    -29.488  0.0000E+00  0.0000E+00
    -29.371 -0.9822-160 -0.1154-160
    -29.253 -0.9014E-24 -0.1060E-24
    -29.136  0.8507E+00  0.1000E+00
    -29.018  0.0000E+00  0.1000E+00
    -28.901  0.0000E+00  0.1000E+00
    -28.783  0.0000E+00  0.1000E+00
    -28.666  0.0000E+00  0.1000E+00
    -28.548  0.0000E+00  0.1000E+00
    -28.430  0.0000E+00  0.1000E+00
    -28.313  0.0000E+00  0.1000E+00
    -28.195  0.0000E+00  0.1000E+00
    -28.078  0.0000E+00  0.1000E+00
    -27.960  0.0000E+00  0.1000E+00
    -27.843  0.0000E+00  0.1000E+00
    -27.725  0.0000E+00  0.1000E+00
    -27.608  0.0000E+00  0.1000E+00
    -27.490  0.0000E+00  0.1000E+00
    -27.373  0.0000E+00  0.1000E+00
    -27.255  0.0000E+00  0.1000E+00
    -27.138  0.0000E+00  0.1000E+00
    -27.020  0.0000E+00  0.1000E+00
    -26.902  0.0000E+00  0.1000E+00
    -26.785  0.0000E+00  0.1000E+00
    -26.667  0.0000E+00  0.1000E+00
    -26.550  0.0000E+00  0.1000E+00
    -26.432  0.0000E+00  0.1000E+00
    -26.315  0.0000E+00  0.1000E+00
    -26.197  0.0000E+00  0.1000E+00
    -26.080  0.0000E+00  0.1000E+00
    -25.962  0.0000E+00  0.1000E+00
    -25.845  0.0000E+00  0.1000E+00
    -25.727  0.0000E+00  0.1000E+00
    -25.609  0.0000E+00  0.1000E+00
    -25.492  0.0000E+00  0.1000E+00
    -25.374  0.0000E+00  0.1000E+00
    -25.257  0.0000E+00  0.1000E+00
    -25.139  0.0000E+00  0.1000E+00
    -25.022  0.0000E+00  0.1000E+00
    -24.904  0.0000E+00  0.1000E+00
    -24.787  0.0000E+00  0.1000E+00
    -24.669  0.0000E+00  0.1000E+00
    -24.552  0.0000E+00  0.1000E+00
    -24.434  0.0000E+00  0.1000E+00
    -24.316  0.0000E+00  0.1000E+00
    -24.199  0.0000E+00  0.1000E+00
    -24.081  0.0000E+00  0.1000E+00
    -23.964  0.0000E+00  0.1000E+00
    -23.846  0.0000E+00  0.1000E+00
    -23.729  0.0000E+00  0.1000E+00
    -23.611  0.0000E+00  0.1000E+00
    -23.494  0.0000E+00  0.1000E+00
    -23.376  0.0000E+00  0.1000E+00
    -23.259  0.0000E+00  0.1000E+00
    -23.141  0.0000E+00  0.1000E+00
    -23.023  0.0000E+00  0.1000E+00
    -22.906  0.0000E+00  0.1000E+00
    -22.788  0.0000E+00  0.1000E+00
    -22.671  0.0000E+00  0.1000E+00
    -22.553  0.0000E+00  0.1000E+00
    -22.436  0.0000E+00  0.1000E+00
    -22.318  0.0000E+00  0.1000E+00
    -22.201  0.0000E+00  0.1000E+00
    -22.083  0.0000E+00  0.1000E+00
    -21.966  0.0000E+00  0.1000E+00
    -21.848  0.0000E+00  0.1000E+00
    -21.731  0.0000E+00  0.1000E+00
    -21.613  0.0000E+00  0.1000E+00
    -21.495  0.0000E+00  0.1000E+00
    -21.378  0.0000E+00  0.1000E+00
    -21.260  0.0000E+00  0.1000E+00
    -21.143  0.0000E+00  0.1000E+00
    -21.025  0.0000E+00  0.1000E+00
    -20.908  0.0000E+00  0.1000E+00
    -20.790  0.0000E+00  0.1000E+00
    -20.673  0.0000E+00  0.1000E+00
    -20.555  0.0000E+00  0.1000E+00
    -20.438  0.0000E+00  0.1000E+00
    -20.320  0.0000E+00  0.1000E+00
    -20.202  0.0000E+00  0.1000E+00
    -20.085  0.0000E+00  0.1000E+00
    -19.967  0.0000E+00  0.1000E+00
    -19.850  0.0000E+00  0.1000E+00
    -19.732  0.0000E+00  0.1000E+00
    -19.615  0.0000E+00  0.1000E+00
    -19.497  0.0000E+00  0.1000E+00
    -19.380  0.0000E+00  0.1000E+00
    -19.262  0.0000E+00  0.1000E+00
    -19.145  0.0000E+00  0.1000E+00
    -19.027  0.0000E+00  0.1000E+00
    -18.909  0.0000E+00  0.1000E+00
    -18.792  0.0000E+00  0.1000E+00
    -18.674  0.0000E+00  0.1000E+00
    -18.557  0.0000E+00  0.1000E+00
    -18.439  0.0000E+00  0.1000E+00
    -18.322  0.0000E+00  0.1000E+00
    -18.204  0.0000E+00  0.1000E+00
    -18.087  0.0000E+00  0.1000E+00
    -17.969  0.0000E+00  0.1000E+00
    -17.852  0.0000E+00  0.1000E+00
    -17.734  0.0000E+00  0.1000E+00
    -17.617  0.0000E+00  0.1000E+00
    -17.499  0.0000E+00  0.1000E+00
    -17.381  0.0000E+00  0.1000E+00
    -17.264  0.0000E+00  0.1000E+00
    -17.146  0.0000E+00  0.1000E+00
    -17.029  0.0000E+00  0.1000E+00
    -16.911  0.0000E+00  0.1000E+00
    -16.794  0.0000E+00  0.1000E+00
    -16.676  0.0000E+00  0.1000E+00
    -16.559  0.0000E+00  0.1000E+00
    -16.441  0.0000E+00  0.1000E+00
    -16.324  0.0000E+00  0.1000E+00
    -16.206  0.0000E+00  0.1000E+00
    -16.088  0.0000E+00  0.1000E+00
    -15.971  0.0000E+00  0.1000E+00
    -15.853  0.0000E+00  0.1000E+00
    -15.736  0.0000E+00  0.1000E+00
    -15.618  0.0000E+00  0.1000E+00
    -15.501  0.0000E+00  0.1000E+00
    -15.383  0.0000E+00  0.1000E+00
    -15.266  0.0000E+00  0.1000E+00
    -15.148  0.0000E+00  0.1000E+00
    -15.031  0.0000E+00  0.1000E+00
    -14.913  0.0000E+00  0.1000E+00
    -14.795  0.0000E+00  0.1000E+00
    -14.678  0.0000E+00  0.1000E+00
    -14.560  0.0000E+00  0.1000E+00
    -14.443  0.0000E+00  0.1000E+00
    -14.325  0.0000E+00  0.1000E+00
    -14.208  0.0000E+00  0.1000E+00
    -14.090 -0.1060E-83  0.1000E+00
    -13.973 -0.3454E-02  0.9959E-01
    -13.855  0.0000E+00  0.2000E+00
    -13.738  0.0000E+00  0.2000E+00
    -13.620  0.0000E+00  0.2000E+00
    -13.502  0.0000E+00  0.2000E+00
    -13.385  0.0000E+00  0.2000E+00
    -13.267  0.0000E+00  0.2000E+00
    -13.150  0.0000E+00  0.2000E+00
    -13.032  0.0000E+00  0.2000E+00
    -12.915  0.0000E+00  0.2000E+00
    -12.797  0.0000E+00  0.2000E+00
    -12.680  0.0000E+00  0.2000E+00
    -12.562  0.0000E+00  0.2000E+00
    -12.445  0.0000E+00  0.2000E+00
    -12.327  0.0000E+00  0.2000E+00
    -12.210  0.0000E+00  0.2000E+00
    -12.092  0.0000E+00  0.2000E+00
    -11.974  0.0000E+00  0.2000E+00
    -11.857  0.0000E+00  0.2000E+00
    -11.739 -0.5699E-50  0.2000E+00
    -11.622  0.1727E+01  0.4030E+00
    -11.504  0.0000E+00  0.4000E+00
    -11.387  0.0000E+00  0.4000E+00
    -11.269  0.0000E+00  0.4000E+00
    -11.152  0.0000E+00  0.4000E+00
    -11.034  0.0000E+00  0.4000E+00
    -10.917  0.0000E+00  0.4000E+00
    -10.799  0.0000E+00  0.4000E+00
    -10.681  0.0000E+00  0.4000E+00
    -10.564  0.0000E+00  0.4000E+00
    -10.446  0.0000E+00  0.4000E+00
    -10.329  0.0000E+00  0.4000E+00
    -10.211  0.0000E+00  0.4000E+00
    -10.094  0.0000E+00  0.4000E+00
     -9.976  0.0000E+00  0.4000E+00
     -9.859  0.0000E+00  0.4000E+00
     -9.741  0.0000E+00  0.4000E+00
     -9.624  0.0000E+00  0.4000E+00
     -9.506  0.0000E+00  0.4000E+00
     -9.388  0.0000E+00  0.4000E+00
     -9.271  0.0000E+00  0.4000E+00
     -9.153  0.0000E+00  0.4000E+00
     -9.036 -0.3231E-52  0.4000E+00
     -8.918  0.8213E+00  0.4965E+00
     -8.801  0.0000E+00  0.5000E+00
     -8.683  0.0000E+00  0.5000E+00
     -8.566  0.0000E+00  0.5000E+00
     -8.448  0.0000E+00  0.5000E+00
     -8.331  0.0000E+00  0.5000E+00
     -8.213  0.0000E+00  0.5000E+00
     -8.095  0.0000E+00  0.5000E+00
     -7.978  0.0000E+00  0.5000E+00
     -7.860  0.0000E+00  0.5000E+00
     -7.743  0.0000E+00  0.5000E+00
     -7.625  0.0000E+00  0.5000E+00
     -7.508  0.0000E+00  0.5000E+00
     -7.390  0.0000E+00  0.5000E+00
     -7.273  0.0000E+00  0.5000E+00
     -7.155  0.0000E+00  0.5000E+00
     -7.038  0.0000E+00  0.5000E+00
     -6.920  0.0000E+00  0.5000E+00
     -6.803  0.0000E+00  0.5000E+00
     -6.685  0.0000E+00  0.5000E+00
     -6.567  0.0000E+00  0.5000E+00
     -6.450  0.0000E+00  0.5000E+00
     -6.332  0.0000E+00  0.5000E+00
     -6.215  0.0000E+00  0.5000E+00
     -6.097  0.0000E+00  0.5000E+00
     -5.980  0.0000E+00  0.5000E+00
     -5.862  0.0000E+00  0.5000E+00
     -5.745  0.0000E+00  0.5000E+00
     -5.627  0.0000E+00  0.5000E+00
     -5.510  0.0000E+00  0.5000E+00
     -5.392  0.0000E+00  0.5000E+00
     -5.274  0.0000E+00  0.5000E+00
     -5.157  0.0000E+00  0.5000E+00
     -5.039  0.0000E+00  0.5000E+00
     -4.922  0.0000E+00  0.5000E+00
     -4.804  0.0000E+00  0.5000E+00
     -4.687  0.0000E+00  0.5000E+00
     -4.569  0.0000E+00  0.5000E+00
     -4.452  0.0000E+00  0.5000E+00
     -4.334  0.0000E+00  0.5000E+00
     -4.217  0.0000E+00  0.5000E+00
     -4.099  0.0000E+00  0.5000E+00
     -3.981  0.0000E+00  0.5000E+00
     -3.864  0.0000E+00  0.5000E+00
     -3.746  0.0000E+00  0.5000E+00
     -3.629  0.0000E+00  0.5000E+00
     -3.511  0.0000E+00  0.5000E+00
     -3.394  0.0000E+00  0.5000E+00
     -3.276  0.0000E+00  0.5000E+00
     -3.159  0.0000E+00  0.5000E+00
     -3.041  0.0000E+00  0.5000E+00
     -2.924  0.0000E+00  0.5000E+00
     -2.806  0.0000E+00  0.5000E+00
     -2.688  0.0000E+00  0.5000E+00
     -2.571  0.0000E+00  0.5000E+00
     -2.453  0.0000E+00  0.5000E+00
     -2.336  0.0000E+00  0.5000E+00
     -2.218  0.0000E+00  0.5000E+00
     -2.101 -0.5564E-37  0.5000E+00
     -1.983  0.1704E+01  0.7003E+00
     -1.866  0.0000E+00  0.7000E+00
     -1.748  0.0000E+00  0.7000E+00
     -1.631  0.0000E+00  0.7000E+00
     -1.513  0.0000E+00  0.7000E+00
     -1.396  0.0000E+00  0.7000E+00
     -1.278  0.0000E+00  0.7000E+00
     -1.160  0.0000E+00  0.7000E+00
     -1.043  0.0000E+00  0.7000E+00
     -0.925  0.0000E+00  0.7000E+00
     -0.808  0.0000E+00  0.7000E+00
     -0.690  0.0000E+00  0.7000E+00
     -0.573  0.0000E+00  0.7000E+00
     -0.455  0.0000E+00  0.7000E+00
     -0.338 -0.3925E-38  0.7000E+00
     -0.220  0.8530E+00  0.8003E+00
     -0.103  0.0000E+00  0.8000E+00
      0.015  0.0000E+00  0.8000E+00
      0.133  0.0000E+00  0.8000E+00
      0.250  0.0000E+00  0.8000E+00
      0.368  0.0000E+00  0.8000E+00
      0.485  0.0000E+00  0.8000E+00
      0.603  0.0000E+00  0.8000E+00
      0.720  0.0000E+00  0.8000E+00
      0.838  0.0000E+00  0.8000E+00
      0.955 -0.3419E-42  0.8000E+00
      1.073  0.8623E+00  0.9014E+00
      1.190  0.1702E+01  0.1100E+01
      1.308  0.1720E+01  0.1302E+01
      1.426  0.8507E+00  0.1400E+01
      1.543  0.0000E+00  0.1400E+01
      1.661  0.0000E+00  0.1400E+01
      1.778  0.0000E+00  0.1400E+01
      1.896  0.0000E+00  0.1400E+01
      2.013  0.0000E+00  0.1400E+01
      2.131  0.0000E+00  0.1400E+01
      2.248  0.0000E+00  0.1400E+01
      2.366 -0.3679E-97  0.1400E+01
      2.483 -0.1699E-04  0.1400E+01
      2.601  0.2563E+01  0.1801E+01
      2.719 -0.3469E-02  0.1800E+01
      2.836  0.1701E+01  0.2200E+01
      2.954  0.8507E+00  0.2400E+01
      3.071  0.0000E+00  0.2400E+01
      3.189  0.0000E+00  0.2400E+01
      3.306  0.0000E+00  0.2400E+01
      3.424  0.0000E+00  0.2400E+01
      3.541  0.0000E+00  0.2400E+01
      3.659  0.0000E+00  0.2400E+01
      3.776  0.0000E+00  0.2400E+01
      3.894  0.0000E+00  0.2400E+01
      4.011  0.0000E+00  0.2400E+01
      4.129  0.0000E+00  0.2400E+01
      4.247  0.0000E+00  0.2400E+01
      4.364  0.0000E+00  0.2400E+01
      4.482  0.0000E+00  0.2400E+01
