 vasp.5.4.1 05Feb16 (build Apr 25 2018 11:37:45) complex                        
  
 executed on             LinuxIFC date 2023.01.29  13:12:25
 running on   24 total cores
 distrk:  each k-point on   24 cores,    1 groups
 distr:  one band on NCORES_PER_BAND=   1 cores,   24 groups


--------------------------------------------------------------------------------------------------------


 INCAR:
 POTCAR:    PAW_PBE C 08Apr2002                   
 POTCAR:    PAW_PBE O 08Apr2002                   

 ----------------------------------------------------------------------------- 
|                                                                             |
|           W    W    AA    RRRRR   N    N  II  N    N   GGGG   !!!           |
|           W    W   A  A   R    R  NN   N  II  NN   N  G    G  !!!           |
|           W    W  A    A  R    R  N N  N  II  N N  N  G       !!!           |
|           W WW W  AAAAAA  RRRRR   N  N N  II  N  N N  G  GGG   !            |
|           WW  WW  A    A  R   R   N   NN  II  N   NN  G    G                |
|           W    W  A    A  R    R  N    N  II  N    N   GGGG   !!!           |
|                                                                             |
|      For optimal performance we recommend to set                            |
|        NCORE= 4 - approx SQRT( number of cores)                             |
|      NCORE specifies how many cores store one orbital (NPAR=cpu/NCORE).     |
|      This setting can  greatly improve the performance of VASP for DFT.     |
|      The default, NPAR=number of cores might be grossly inefficient         |
|      on modern multi-core architectures or massively parallel machines.     |
|      Do your own testing !!!!                                               |
|      Unfortunately you need to use the default for GW and RPA calculations. |
|      (for HF NCORE is supported but not extensively tested yet)             |
|                                                                             |
 ----------------------------------------------------------------------------- 

 POTCAR:    PAW_PBE C 08Apr2002                   
   VRHFIN =C: s2p2                                                              
   LEXCH  = PE                                                                  
   EATOM  =   147.1560 eV,   10.8157 Ry                                         
                                                                                
   TITEL  = PAW_PBE C 08Apr2002                                                 
   LULTRA =        F    use ultrasoft PP ?                                      
   IUNSCR =        1    unscreen: 0-lin 1-nonlin 2-no                           
   RPACOR =    1.200    partial core radius                                     
   POMASS =   12.011; ZVAL   =    4.000    mass and valenz                      
   RCORE  =    1.500    outmost cutoff radius                                   
   RWIGS  =    1.630; RWIGS  =    0.863    wigner-seitz radius (au A)           
   ENMAX  =  400.000; ENMIN  =  300.000 eV                                      
   ICORE  =        2    local potential                                         
   LCOR   =        T    correct aug charges                                     
   LPAW   =        T    paw PP                                                  
   EAUG   =  644.873                                                            
   DEXC   =    0.000                                                            
   RMAX   =    1.529    core radius for proj-oper                               
   RAUG   =    1.300    factor for augmentation sphere                          
   RDEP   =    1.501    radius for radial grids                                 
   RDEPT  =    1.300    core radius for aug-charge                              
                                                                                
   Atomic configuration                                                         
    4 entries                                                                   
     n  l   j            E        occ.                                          
     1  0  0.50      -273.3789   2.0000                                         
     2  0  0.50       -13.7508   2.0000                                         
     2  1  0.50        -5.2854   2.0000                                         
     3  2  1.50        -5.4423   0.0000                                         
   Description                                                                  
     l       E           TYP  RCUT    TYP  RCUT                                 
     0    -13.7508458     23  1.200                                             
     0     -8.2022199     23  1.200                                             
     1     -5.2854383     23  1.500                                             
     1     34.0145650     23  1.500                                             
     2     -5.4423304      7  1.500                                             
  local pseudopotential read in
  partial core-charges read in
  partial kinetic energy density read in
  atomic valenz-charges read in
  non local Contribution for L=           0  read in
    real space projection operators read in
  non local Contribution for L=           0  read in
    real space projection operators read in
  non local Contribution for L=           1  read in
    real space projection operators read in
  non local Contribution for L=           1  read in
    real space projection operators read in
    PAW grid and wavefunctions read in
 
   number of l-projection  operators is LMAX  =           4
   number of lm-projection operators is LMMAX =           8
 
 POTCAR:    PAW_PBE O 08Apr2002                   
   VRHFIN =O: s2p4                                                              
   LEXCH  = PE                                                                  
   EATOM  =   432.3788 eV,   31.7789 Ry                                         
                                                                                
   TITEL  = PAW_PBE O 08Apr2002                                                 
   LULTRA =        F    use ultrasoft PP ?                                      
   IUNSCR =        1    unscreen: 0-lin 1-nonlin 2-no                           
   RPACOR =    1.200    partial core radius                                     
   POMASS =   16.000; ZVAL   =    6.000    mass and valenz                      
   RCORE  =    1.520    outmost cutoff radius                                   
   RWIGS  =    1.550; RWIGS  =    0.820    wigner-seitz radius (au A)           
   ENMAX  =  400.000; ENMIN  =  300.000 eV                                      
   ICORE  =        2    local potential                                         
   LCOR   =        T    correct aug charges                                     
   LPAW   =        T    paw PP                                                  
   EAUG   =  605.392                                                            
   DEXC   =    0.000                                                            
   RMAX   =    1.553    core radius for proj-oper                               
   RAUG   =    1.300    factor for augmentation sphere                          
   RDEP   =    1.550    radius for radial grids                                 
   RDEPT  =    1.329    core radius for aug-charge                              
                                                                                
   Atomic configuration                                                         
    4 entries                                                                   
     n  l   j            E        occ.                                          
     1  0  0.50      -514.6923   2.0000                                         
     2  0  0.50       -23.9615   2.0000                                         
     2  1  0.50        -9.0305   4.0000                                         
     3  2  1.50        -9.5241   0.0000                                         
   Description                                                                  
     l       E           TYP  RCUT    TYP  RCUT                                 
     0    -23.9615318     23  1.200                                             
     0     -9.5240782     23  1.200                                             
     1     -9.0304911     23  1.520                                             
     1      8.1634956     23  1.520                                             
     2     -9.5240782      7  1.500                                             
  local pseudopotential read in
  partial core-charges read in
  partial kinetic energy density read in
  kinetic energy density of atom read in
  atomic valenz-charges read in
  non local Contribution for L=           0  read in
    real space projection operators read in
  non local Contribution for L=           0  read in
    real space projection operators read in
  non local Contribution for L=           1  read in
    real space projection operators read in
  non local Contribution for L=           1  read in
    real space projection operators read in
    PAW grid and wavefunctions read in
 
   number of l-projection  operators is LMAX  =           4
   number of lm-projection operators is LMMAX =           8
 
  PAW_PBE C 08Apr2002                   :
 energy of atom  1       EATOM= -147.1560
 kinetic energy error for atom=    0.0854 (will be added to EATOM!!)
  PAW_PBE O 08Apr2002                   :
 energy of atom  2       EATOM= -432.3788
 kinetic energy error for atom=    0.3782 (will be added to EATOM!!)
 
 
 POSCAR:  C  O                                   
  positions in cartesian coordinates
  No initial velocities read in
 exchange correlation table for  LEXCH =        8
   RHO(1)=    0.500       N(1)  =     2000
   RHO(2)=  100.500       N(2)  =     4000

 VTST: version 3.2, (02/03/18)

 CHAIN: initializing optimizer
 
 OPT: Using VASP Conjugate-Gradient optimizer
 CHAIN: Read ICHAIN            0
 
 POSCAR:  C  O                                   
  positions in cartesian coordinates
  No initial velocities read in
 


--------------------------------------------------------------------------------------------------------


 ion  position               nearest neighbor table
   1  0.500  0.500  0.445-   2 1.10
   2  0.500  0.500  0.555-   1 1.10
 
  LATTYP: Found a simple cubic cell.
 ALAT       =    10.0000000000
  
  Lattice vectors:
  
 A1 = (  10.0000000000,   0.0000000000,   0.0000000000)
 A2 = (   0.0000000000,  10.0000000000,   0.0000000000)
 A3 = (   0.0000000000,   0.0000000000,  10.0000000000)


Analysis of symmetry for initial positions (statically):
=====================================================================
 Subroutine PRICEL returns:
 Original cell was already a primitive cell.
 

 Routine SETGRP: Setting up the symmetry group for a 
 simple cubic supercell.


 Subroutine GETGRP returns: Found  8 space group operations
 (whereof  8 operations were pure point group operations)
 out of a pool of 48 trial point group operations.


The static configuration has the point symmetry C_4v.


Analysis of symmetry for dynamics (positions and initial velocities):
=====================================================================
 Subroutine PRICEL returns:
 Original cell was already a primitive cell.
 

 Routine SETGRP: Setting up the symmetry group for a 
 simple cubic supercell.


 Subroutine GETGRP returns: Found  8 space group operations
 (whereof  8 operations were pure point group operations)
 out of a pool of 48 trial point group operations.


The dynamic configuration has the point symmetry C_4v.


 Subroutine INISYM returns: Found  8 space group operations
 (whereof  8 operations are pure point group operations),
 and found     1 'primitive' translations

 
 
 KPOINTS: KPOINTS created by Atomic Simulation Env

Automatic generation of k-mesh.
Space group operators:
 irot       det(A)        alpha          n_x          n_y          n_z        tau_x        tau_y        tau_z
    1     1.000000     0.000000     1.000000     0.000000     0.000000     0.000000     0.000000     0.000000
    2     1.000000    90.000000     0.000000     0.000000    -1.000000     0.000000     0.000000     0.000000
    3     1.000000   180.000000     0.000000     0.000000     1.000000     0.000000     0.000000     0.000000
    4     1.000000    90.000000     0.000000     0.000000     1.000000     0.000000     0.000000     0.000000
    5    -1.000000   180.000000     1.000000     0.000000     0.000000     0.000000     0.000000     0.000000
    6    -1.000000   180.000000     0.707107     0.707107     0.000000     0.000000     0.000000     0.000000
    7    -1.000000   180.000000     0.000000     1.000000     0.000000     0.000000     0.000000     0.000000
    8    -1.000000   180.000000     0.707107    -0.707107     0.000000     0.000000     0.000000     0.000000
 
 Subroutine IBZKPT returns following result:
 ===========================================
 
 Found      1 irreducible k-points:
 
 Following reciprocal coordinates:
            Coordinates               Weight
  0.000000  0.000000  0.000000      1.000000
 
 Following cartesian coordinates:
            Coordinates               Weight
  0.000000  0.000000  0.000000      1.000000
 

 ----------------------------------------------------------------------------- 
|                                                                             |
|           W    W    AA    RRRRR   N    N  II  N    N   GGGG   !!!           |
|           W    W   A  A   R    R  NN   N  II  NN   N  G    G  !!!           |
|           W    W  A    A  R    R  N N  N  II  N N  N  G       !!!           |
|           W WW W  AAAAAA  RRRRR   N  N N  II  N  N N  G  GGG   !            |
|           WW  WW  A    A  R   R   N   NN  II  N   NN  G    G                |
|           W    W  A    A  R    R  N    N  II  N    N   GGGG   !!!           |
|                                                                             |
|      The number of bands has been changed from the values supplied          |
|      in the INCAR file. This is a result of running the parallel version.   |
|      The orbitals not found in the WAVECAR file will be initialized with    |
|      random numbers, which is usually adequate. For correlated              |
|      calculations, however, you should redo the groundstate calculation.    |
|      I found NBANDS    =        8  now  NBANDS  =      24                   |
|                                                                             |
 ----------------------------------------------------------------------------- 



--------------------------------------------------------------------------------------------------------




 Dimension of arrays:
   k-points           NKPTS =      1   k-points in BZ     NKDIM =      1   number of bands    NBANDS=     24
   number of dos      NEDOS =    301   number of ions     NIONS =      2
   non local maximal  LDIM  =      4   non local SUM 2l+1 LMDIM =      8
   total plane-waves  NPLWV = 110592
   max r-space proj   IRMAX =      1   max aug-charges    IRDMAX=   1634
   dimension x,y,z NGX =    48 NGY =   48 NGZ =   48
   dimension x,y,z NGXF=    96 NGYF=   96 NGZF=   96
   support grid    NGXF=    96 NGYF=   96 NGZF=   96
   ions per type =               1   1
 NGX,Y,Z   is equivalent  to a cutoff of   7.98,  7.98,  7.98 a.u.
 NGXF,Y,Z  is equivalent  to a cutoff of  15.96, 15.96, 15.96 a.u.


 I would recommend the setting:
   dimension x,y,z NGX =    46 NGY =   46 NGZ =   46
 SYSTEM =  unknown system                          
 POSCAR =   C  O                                   

 Startparameter for this run:
   NWRITE =      2    write-flag & timer
   PREC   = normal    normal or accurate (medium, high low for compatibility)
   ISTART =      1    job   : 0-new  1-cont  2-samecut
   ICHARG =      0    charge: 1-file 2-atom 10-const
   ISPIN  =      1    spin polarized calculation?
   LNONCOLLINEAR =      F non collinear calculations
   LSORBIT =      F    spin-orbit coupling
   INIWAV =      1    electr: 0-lowe 1-rand  2-diag
   LASPH  =      F    aspherical Exc in radial PAW
   METAGGA=      F    non-selfconsistent MetaGGA calc.

 Electronic Relaxation 1
   ENCUT  =  350.0 eV  25.72 Ry    5.07 a.u.  15.25 15.25 15.25*2*pi/ulx,y,z
   ENINI  =  350.0     initial cutoff
   ENAUG  =  644.9 eV  augmentation charge cutoff
   NELM   =     60;   NELMIN=  2; NELMDL=  0     # of ELM steps 
   EDIFF  = 0.1E-05   stopping-criterion for ELM
   LREAL  =      F    real-space projection
   NLSPLINE    = F    spline interpolate recip. space projectors
   LCOMPAT=      F    compatible to vasp.4.4
   GGA_COMPAT  = T    GGA compatible to vasp.4.4-vasp.4.6
   LMAXPAW     = -100 max onsite density
   LMAXMIX     =    2 max onsite mixed and CHGCAR
   VOSKOWN=      0    Vosko Wilk Nusair interpolation
   ROPT   =    0.00000   0.00000
 Ionic relaxation
   EDIFFG = 0.1E-04   stopping-criterion for IOM
   NSW    =     20    number of steps for IOM
   NBLOCK =      1;   KBLOCK =     20    inner block; outer block 
   IBRION =      2    ionic relax: 0-MD 1-quasi-New 2-CG
   NFREE  =      1    steps in history (QN), initial steepest desc. (CG)
   ISIF   =      2    stress and relaxation
   IWAVPR =     11    prediction:  0-non 1-charg 2-wave 3-comb
   ISYM   =      2    0-nonsym 1-usesym 2-fastsym
   LCORR  =      T    Harris-Foulkes like correction to forces

   POTIM  = 0.5000    time-step for ionic-motion
   TEIN   =    0.0    initial temperature
   TEBEG  =    0.0;   TEEND  =   0.0 temperature during run
   SMASS  =  -3.00    Nose mass-parameter (am)
   estimated Nose-frequenzy (Omega)   =  0.10E-29 period in steps =****** mass=  -0.229E-26a.u.
   SCALEE = 1.0000    scale energy and forces
   NPACO  =    256;   APACO  = 16.0  distance and # of slots for P.C.
   PSTRESS=    0.0 pullay stress

  Mass of Ions in am
   POMASS =  12.01 16.00
  Ionic Valenz
   ZVAL   =   4.00  6.00
  Atomic Wigner-Seitz radii
   RWIGS  =  -1.00 -1.00
  virtual crystal weights 
   VCA    =   1.00  1.00
   NELECT =      10.0000    total number of electrons
   NUPDOWN=      -1.0000    fix difference up-down

 DOS related values:
   EMIN   =  10.00;   EMAX   =-10.00  energy-range for DOS
   EFERMI =   0.00
   ISMEAR =     1;   SIGMA  =   0.01  broadening in eV -4-tet -1-fermi 0-gaus

 Electronic relaxation 2 (details)
   IALGO  =     38    algorithm
   LDIAG  =      T    sub-space diagonalisation (order eigenvalues)
   LSUBROT=      F    optimize rotation matrix (better conditioning)
   TURBO    =      0    0=normal 1=particle mesh
   IRESTART =      0    0=no restart 2=restart with 2 vectors
   NREBOOT  =      0    no. of reboots
   NMIN     =      0    reboot dimension
   EREF     =   0.00    reference energy to select bands
   IMIX   =      4    mixing-type and parameters
     AMIX     =   0.40;   BMIX     =  1.00
     AMIX_MAG =   1.60;   BMIX_MAG =  1.00
     AMIN     =   0.10
     WC   =   100.;   INIMIX=   1;  MIXPRE=   1;  MAXMIX= -45

 Intra band minimization:
   WEIMIN = 0.0010     energy-eigenvalue tresh-hold
   EBREAK =  0.10E-07  absolut break condition
   DEPER  =   0.30     relativ break condition  

   TIME   =   0.40     timestep for ELM

  volume/ion in A,a.u.               =     500.00      3374.17
  Fermi-wavevector in a.u.,A,eV,Ry     =   0.352702  0.666511  1.692549  0.124399
  Thomas-Fermi vector in A             =   1.266362
 
 Write flags
   LWAVE  =      T    write WAVECAR
   LCHARG =      T    write CHGCAR
   LVTOT  =      F    write LOCPOT, total local potential
   LVHAR  =      F    write LOCPOT, Hartree potential only
   LELF   =      F    write electronic localiz. function (ELF)
   LORBIT =      0    0 simple, 1 ext, 2 COOP (PROOUT)


 Dipole corrections
   LMONO  =      F    monopole corrections only (constant potential shift)
   LDIPOL =      F    correct potential (dipole corrections)
   IDIPOL =      0    1-x, 2-y, 3-z, 4-all directions 
   EPSILON=  1.0000000 bulk dielectric constant

 Exchange correlation treatment:
   GGA     =    PE    GGA type
   LEXCH   =     8    internal setting for exchange type
   VOSKOWN=      0    Vosko Wilk Nusair interpolation
   LHFCALC =     F    Hartree Fock is set to
   LHFONE  =     F    Hartree Fock one center treatment
   AEXX    =    0.0000 exact exchange contribution

 Linear response parameters
   LEPSILON=     F    determine dielectric tensor
   LRPA    =     F    only Hartree local field effects (RPA)
   LNABLA  =     F    use nabla operator in PAW spheres
   LVEL    =     F    velocity operator in full k-point grid
   LINTERFAST=   F  fast interpolation
   KINTER  =     0    interpolate to denser k-point grid
   CSHIFT  =0.1000    complex shift for real part using Kramers Kronig
   OMEGAMAX=  -1.0    maximum frequency
   DEG_THRESHOLD= 0.2000000E-02 threshold for treating states as degnerate
   RTIME   =    0.100 relaxation time in fs

 Orbital magnetization related:
   ORBITALMAG=     F  switch on orbital magnetization
   LCHIMAG   =     F  perturbation theory with respect to B field
   DQ        =  0.001000  dq finite difference perturbation B field



--------------------------------------------------------------------------------------------------------


 conjugate gradient relaxation of ions
 charge density and potential will be updated during run
 non-spin polarized calculation
 Variant of blocked Davidson
 Davidson routine will perform the subspace rotation
 perform sub-space diagonalisation
    after iterative eigenvector-optimisation
 modified Broyden-mixing scheme, WC =      100.0
 initial mixing is a Kerker type mixing with AMIX =  0.4000 and BMIX =      1.0000
 Hartree-type preconditioning will be used
 using additional bands           19
 reciprocal scheme for non local part
 use partial core corrections
 calculate Harris-corrections to forces 
   (improved forces if not selfconsistent)
 use gradient corrections 
 use of overlap-Matrix (Vanderbilt PP)
 Methfessel and Paxton  Order N= 1 SIGMA  =   0.01


--------------------------------------------------------------------------------------------------------


  energy-cutoff  :      350.00
  volume of cell :     1000.00
      direct lattice vectors                 reciprocal lattice vectors
    10.000000000  0.000000000  0.000000000     0.100000000  0.000000000  0.000000000
     0.000000000 10.000000000  0.000000000     0.000000000  0.100000000  0.000000000
     0.000000000  0.000000000 10.000000000     0.000000000  0.000000000  0.100000000

  length of vectors
    10.000000000 10.000000000 10.000000000     0.100000000  0.100000000  0.100000000


 
 old parameters found on file WAVECAR:
  energy-cutoff  :      350.00
  volume of cell :     1000.00
      direct lattice vectors                 reciprocal lattice vectors
    10.000000000  0.000000000  0.000000000     0.100000000  0.000000000  0.000000000
     0.000000000 10.000000000  0.000000000     0.000000000  0.100000000  0.000000000
     0.000000000  0.000000000 10.000000000     0.000000000  0.000000000  0.100000000

  length of vectors

 
 k-points in units of 2pi/SCALE and weight: KPOINTS created by Atomic Simulation Env
   0.00000000  0.00000000  0.00000000       1.000
 
 k-points in reciprocal lattice and weights: KPOINTS created by Atomic Simulation Env
   0.00000000  0.00000000  0.00000000       1.000
 
 position of ions in fractional coordinates (direct lattice) 
   0.50000000  0.50000000  0.44500000
   0.50000000  0.50000000  0.55500000
 
 position of ions in cartesian coordinates  (Angst):
   5.00000000  5.00000000  4.45000000
   5.00000000  5.00000000  5.55000000
 


--------------------------------------------------------------------------------------------------------


 k-point  1 :   0.0000 0.0000 0.0000  plane waves:   14795

 maximum and minimum number of plane-waves per node :     14795    14795

 maximum number of plane-waves:     14795
 maximum index in each direction: 
   IXMAX=   15   IYMAX=   15   IZMAX=   15
   IXMIN=  -15   IYMIN=  -15   IZMIN=  -15

 WARNING: aliasing errors must be expected set NGX to  62 to avoid them
 WARNING: aliasing errors must be expected set NGY to  62 to avoid them
 WARNING: aliasing errors must be expected set NGZ to  62 to avoid them
 aliasing errors are usually negligible using standard VASP settings
 and one can safely disregard these warnings

 serial   3D FFT for wavefunctions
 parallel 3D FFT for charge:
    minimum data exchange during FFTs selected (reduces bandwidth)


 total amount of memory used by VASP on root node    40893. kBytes
========================================================================

   base      :      30000. kBytes
   nonl-proj :       2369. kBytes
   fftplans  :       1726. kBytes
   grid      :       6555. kBytes
   one-center:          6. kBytes
   wavefun   :        237. kBytes
 
     INWAV:  cpu time    0.0236: real time    0.0289
 Broyden mixing: mesh for mixing (old mesh)
   NGX = 31   NGY = 31   NGZ = 31
  (NGX  = 96   NGY  = 96   NGZ  = 96)
  gives a total of  29791 points

 charge density for first step will be calculated from the start-wavefunctions


--------------------------------------------------------------------------------------------------------


 Maximum index for augmentation-charges          148 (set IRDMAX)


--------------------------------------------------------------------------------------------------------


 initial charge from wavefunction
 First call to EWALD:  gamma=   0.177
 Maximum number of real-space cells 3x 3x 3
 Maximum number of reciprocal cells 3x 3x 3

 FEWALD executed in parallel
    FEWALD:  cpu time    0.0015: real time    0.0015


----------------------------------------- Iteration    1(   1)  ---------------------------------------


    POTLOK:  cpu time    0.0281: real time    0.0283
    SETDIJ:  cpu time    0.0015: real time    0.0015
     EDDAV:  cpu time    0.0415: real time    0.0417
       DOS:  cpu time    0.0004: real time    0.0004
    CHARGE:  cpu time    0.0190: real time    0.0191
    MIXING:  cpu time    0.0014: real time    0.0014
    --------------------------------------------
      LOOP:  cpu time    0.0940: real time    0.0962

 eigenvalue-minimisations  :    48
 total energy-change (2. order) :-0.1490264E+02  (-0.8170826E+00)
 number of electron       9.9999986 magnetization 
 augmentation part        0.6585651 magnetization 

 Broyden mixing:
  rms(total) = 0.30800E+00    rms(broyden)= 0.30732E+00
  rms(prec ) = 0.36113E+00
  weight for this iteration     100.00

 Free energy of the ion-electron system (eV)
  ---------------------------------------------------
  alpha Z        PSCENC =         0.43695755
  Ewald energy   TEWEN  =       110.78635065
  -Hartree energ DENC   =      -582.79165895
  -exchange      EXHF   =         0.00000000
  -V(xc)+E(xc)   XCENC  =        40.46270715
  PAW double counting   =       915.17498250     -917.59447584
  entropy T*S    EENTRO =         0.00057979
  eigenvalues    EBANDS =      -160.44931281
  atomic energy  EATOM  =       579.07123046
  Solvation  Ediel_sol  =         0.00000000
  ---------------------------------------------------
  free energy    TOTEN  =       -14.90263948 eV

  energy without entropy =      -14.90321928  energy(sigma->0) =      -14.90283275


--------------------------------------------------------------------------------------------------------




----------------------------------------- Iteration    1(   2)  ---------------------------------------


    POTLOK:  cpu time    0.0252: real time    0.0254
    SETDIJ:  cpu time    0.0014: real time    0.0014
     EDDAV:  cpu time    0.0391: real time    0.0392
       DOS:  cpu time    0.0003: real time    0.0003
    CHARGE:  cpu time    0.0191: real time    0.0192
    MIXING:  cpu time    0.0012: real time    0.0012
    --------------------------------------------
      LOOP:  cpu time    0.0877: real time    0.0888

 eigenvalue-minimisations  :    48
 total energy-change (2. order) : 0.1608301E+00  (-0.3648367E-01)
 number of electron       9.9999985 magnetization 
 augmentation part        0.6698558 magnetization 

 Broyden mixing:
  rms(total) = 0.15588E+00    rms(broyden)= 0.15586E+00
  rms(prec ) = 0.18303E+00
  weight for this iteration     100.00

 eigenvalues of (default mixing * dielectric matrix)
  average eigenvalue GAMMA=   1.8037
  1.8037

 Free energy of the ion-electron system (eV)
  ---------------------------------------------------
  alpha Z        PSCENC =         0.43695755
  Ewald energy   TEWEN  =       110.78635065
  -Hartree energ DENC   =      -585.91297774
  -exchange      EXHF   =         0.00000000
  -V(xc)+E(xc)   XCENC  =        40.58197595
  PAW double counting   =       938.38200303     -940.78717011
  entropy T*S    EENTRO =         0.00057979
  eigenvalues    EBANDS =      -157.30075893
  atomic energy  EATOM  =       579.07123046
  Solvation  Ediel_sol  =         0.00000000
  ---------------------------------------------------
  free energy    TOTEN  =       -14.74180935 eV

  energy without entropy =      -14.74238914  energy(sigma->0) =      -14.74200261


--------------------------------------------------------------------------------------------------------




----------------------------------------- Iteration    1(   3)  ---------------------------------------


    POTLOK:  cpu time    0.0248: real time    0.0250
    SETDIJ:  cpu time    0.0014: real time    0.0014
     EDDAV:  cpu time    0.0537: real time    0.0540
       DOS:  cpu time    0.0003: real time    0.0003
    CHARGE:  cpu time    0.0189: real time    0.0190
    MIXING:  cpu time    0.0012: real time    0.0012
    --------------------------------------------
      LOOP:  cpu time    0.1013: real time    0.1029

 eigenvalue-minimisations  :    72
 total energy-change (2. order) : 0.5180847E-01  (-0.2017344E-01)
 number of electron       9.9999986 magnetization 
 augmentation part        0.6647662 magnetization 

 Broyden mixing:
  rms(total) = 0.32445E-01    rms(broyden)= 0.32352E-01
  rms(prec ) = 0.37289E-01
  weight for this iteration     100.00

 eigenvalues of (default mixing * dielectric matrix)
  average eigenvalue GAMMA=   1.4127
  0.8090  2.0163

 Free energy of the ion-electron system (eV)
  ---------------------------------------------------
  alpha Z        PSCENC =         0.43695755
  Ewald energy   TEWEN  =       110.78635065
  -Hartree energ DENC   =      -589.88121222
  -exchange      EXHF   =         0.00000000
  -V(xc)+E(xc)   XCENC  =        40.74305221
  PAW double counting   =       956.81474641     -959.23747666
  entropy T*S    EENTRO =         0.00057979
  eigenvalues    EBANDS =      -153.42422908
  atomic energy  EATOM  =       579.07123046
  Solvation  Ediel_sol  =         0.00000000
  ---------------------------------------------------
  free energy    TOTEN  =       -14.69000088 eV

  energy without entropy =      -14.69058067  energy(sigma->0) =      -14.69019414


--------------------------------------------------------------------------------------------------------




----------------------------------------- Iteration    1(   4)  ---------------------------------------


    POTLOK:  cpu time    0.0246: real time    0.0247
    SETDIJ:  cpu time    0.0014: real time    0.0014
     EDDAV:  cpu time    0.0384: real time    0.0386
       DOS:  cpu time    0.0002: real time    0.0002
    CHARGE:  cpu time    0.0187: real time    0.0187
    MIXING:  cpu time    0.0012: real time    0.0012
    --------------------------------------------
      LOOP:  cpu time    0.0855: real time    0.0870

 eigenvalue-minimisations  :    48
 total energy-change (2. order) : 0.8264456E-04  (-0.7312321E-03)
 number of electron       9.9999985 magnetization 
 augmentation part        0.6663982 magnetization 

 Broyden mixing:
  rms(total) = 0.18630E-01    rms(broyden)= 0.18625E-01
  rms(prec ) = 0.21281E-01
  weight for this iteration     100.00

 eigenvalues of (default mixing * dielectric matrix)
  average eigenvalue GAMMA=   1.3139
  2.1262  0.9078  0.9078

 Free energy of the ion-electron system (eV)
  ---------------------------------------------------
  alpha Z        PSCENC =         0.43695755
  Ewald energy   TEWEN  =       110.78635065
  -Hartree energ DENC   =      -589.94629168
  -exchange      EXHF   =         0.00000000
  -V(xc)+E(xc)   XCENC  =        40.73781468
  PAW double counting   =       958.89225345     -961.31126651
  entropy T*S    EENTRO =         0.00057979
  eigenvalues    EBANDS =      -153.35754663
  atomic energy  EATOM  =       579.07123046
  Solvation  Ediel_sol  =         0.00000000
  ---------------------------------------------------
  free energy    TOTEN  =       -14.68991824 eV

  energy without entropy =      -14.69049803  energy(sigma->0) =      -14.69011150


--------------------------------------------------------------------------------------------------------




----------------------------------------- Iteration    1(   5)  ---------------------------------------


    POTLOK:  cpu time    0.0244: real time    0.0245
    SETDIJ:  cpu time    0.0014: real time    0.0014
     EDDAV:  cpu time    0.0382: real time    0.0384
       DOS:  cpu time    0.0003: real time    0.0003
    CHARGE:  cpu time    0.0187: real time    0.0188
    MIXING:  cpu time    0.0012: real time    0.0012
    --------------------------------------------
      LOOP:  cpu time    0.0853: real time    0.0868

 eigenvalue-minimisations  :    48
 total energy-change (2. order) :-0.8555737E-04  (-0.5635767E-04)
 number of electron       9.9999985 magnetization 
 augmentation part        0.6664753 magnetization 

 Broyden mixing:
  rms(total) = 0.86246E-02    rms(broyden)= 0.86235E-02
  rms(prec ) = 0.10876E-01
  weight for this iteration     100.00

 eigenvalues of (default mixing * dielectric matrix)
  average eigenvalue GAMMA=   1.4672
  2.2712  1.6783  0.8622  1.0570

 Free energy of the ion-electron system (eV)
  ---------------------------------------------------
  alpha Z        PSCENC =         0.43695755
  Ewald energy   TEWEN  =       110.78635065
  -Hartree energ DENC   =      -589.87684491
  -exchange      EXHF   =         0.00000000
  -V(xc)+E(xc)   XCENC  =        40.73094345
  PAW double counting   =       961.11559206     -963.53237125
  entropy T*S    EENTRO =         0.00057979
  eigenvalues    EBANDS =      -153.42244160
  atomic energy  EATOM  =       579.07123046
  Solvation  Ediel_sol  =         0.00000000
  ---------------------------------------------------
  free energy    TOTEN  =       -14.69000379 eV

  energy without entropy =      -14.69058358  energy(sigma->0) =      -14.69019706


--------------------------------------------------------------------------------------------------------




----------------------------------------- Iteration    1(   6)  ---------------------------------------


    POTLOK:  cpu time    0.0313: real time    0.0314
    SETDIJ:  cpu time    0.0028: real time    0.0028
     EDDAV:  cpu time    0.0807: real time    0.0810
       DOS:  cpu time    0.0003: real time    0.0003
    CHARGE:  cpu time    0.0220: real time    0.0221
    MIXING:  cpu time    0.0016: real time    0.0016
    --------------------------------------------
      LOOP:  cpu time    0.1398: real time    0.1415

 eigenvalue-minimisations  :    96
 total energy-change (2. order) :-0.3029800E-03  (-0.1857615E-04)
 number of electron       9.9999985 magnetization 
 augmentation part        0.6666136 magnetization 

 Broyden mixing:
  rms(total) = 0.19535E-02    rms(broyden)= 0.19526E-02
  rms(prec ) = 0.44627E-02
  weight for this iteration     100.00

 eigenvalues of (default mixing * dielectric matrix)
  average eigenvalue GAMMA=   1.5299
  2.6209  1.8717  0.8840  1.1365  1.1365

 Free energy of the ion-electron system (eV)
  ---------------------------------------------------
  alpha Z        PSCENC =         0.43695755
  Ewald energy   TEWEN  =       110.78635065
  -Hartree energ DENC   =      -589.85672896
  -exchange      EXHF   =         0.00000000
  -V(xc)+E(xc)   XCENC  =        40.72769689
  PAW double counting   =       962.17005142     -964.58470038
  entropy T*S    EENTRO =         0.00057979
  eigenvalues    EBANDS =      -153.44174420
  atomic energy  EATOM  =       579.07123046
  Solvation  Ediel_sol  =         0.00000000
  ---------------------------------------------------
  free energy    TOTEN  =       -14.69030677 eV

  energy without entropy =      -14.69088656  energy(sigma->0) =      -14.69050004


--------------------------------------------------------------------------------------------------------




----------------------------------------- Iteration    1(   7)  ---------------------------------------


    POTLOK:  cpu time    0.0265: real time    0.0266
    SETDIJ:  cpu time    0.0016: real time    0.0016
     EDDAV:  cpu time    0.0393: real time    0.0395
       DOS:  cpu time    0.0003: real time    0.0003
    CHARGE:  cpu time    0.0193: real time    0.0194
    MIXING:  cpu time    0.0014: real time    0.0014
    --------------------------------------------
      LOOP:  cpu time    0.0895: real time    0.0910

 eigenvalue-minimisations  :    48
 total energy-change (2. order) :-0.3829171E-03  (-0.5078775E-05)
 number of electron       9.9999985 magnetization 
 augmentation part        0.6667608 magnetization 

 Broyden mixing:
  rms(total) = 0.15166E-02    rms(broyden)= 0.15159E-02
  rms(prec ) = 0.30138E-02
  weight for this iteration     100.00

 eigenvalues of (default mixing * dielectric matrix)
  average eigenvalue GAMMA=   1.5560
  2.7090  2.1676  1.3574  1.3574  0.8722  0.8722

 Free energy of the ion-electron system (eV)
  ---------------------------------------------------
  alpha Z        PSCENC =         0.43695755
  Ewald energy   TEWEN  =       110.78635065
  -Hartree energ DENC   =      -589.92165251
  -exchange      EXHF   =         0.00000000
  -V(xc)+E(xc)   XCENC  =        40.72945336
  PAW double counting   =       961.97802791     -964.39254590
  entropy T*S    EENTRO =         0.00057979
  eigenvalues    EBANDS =      -153.37909101
  atomic energy  EATOM  =       579.07123046
  Solvation  Ediel_sol  =         0.00000000
  ---------------------------------------------------
  free energy    TOTEN  =       -14.69068969 eV

  energy without entropy =      -14.69126948  energy(sigma->0) =      -14.69088295


--------------------------------------------------------------------------------------------------------




----------------------------------------- Iteration    1(   8)  ---------------------------------------


    POTLOK:  cpu time    0.0240: real time    0.0240
    SETDIJ:  cpu time    0.0013: real time    0.0013
     EDDAV:  cpu time    0.0526: real time    0.0528
       DOS:  cpu time    0.0002: real time    0.0002
    CHARGE:  cpu time    0.0185: real time    0.0186
    MIXING:  cpu time    0.0014: real time    0.0014
    --------------------------------------------
      LOOP:  cpu time    0.0991: real time    0.1007

 eigenvalue-minimisations  :    72
 total energy-change (2. order) :-0.4811139E-03  (-0.5078504E-05)
 number of electron       9.9999985 magnetization 
 augmentation part        0.6666388 magnetization 

 Broyden mixing:
  rms(total) = 0.81838E-03    rms(broyden)= 0.81813E-03
  rms(prec ) = 0.16686E-02
  weight for this iteration     100.00

 eigenvalues of (default mixing * dielectric matrix)
  average eigenvalue GAMMA=   1.7422
  3.2506  2.2495  2.2495  1.5702  1.1150  0.8803  0.8803

 Free energy of the ion-electron system (eV)
  ---------------------------------------------------
  alpha Z        PSCENC =         0.43695755
  Ewald energy   TEWEN  =       110.78635065
  -Hartree energ DENC   =      -590.01579991
  -exchange      EXHF   =         0.00000000
  -V(xc)+E(xc)   XCENC  =        40.73273015
  PAW double counting   =       961.21887668     -963.63414536
  entropy T*S    EENTRO =         0.00057979
  eigenvalues    EBANDS =      -153.28795082
  atomic energy  EATOM  =       579.07123046
  Solvation  Ediel_sol  =         0.00000000
  ---------------------------------------------------
  free energy    TOTEN  =       -14.69117080 eV

  energy without entropy =      -14.69175059  energy(sigma->0) =      -14.69136407


--------------------------------------------------------------------------------------------------------




----------------------------------------- Iteration    1(   9)  ---------------------------------------


    POTLOK:  cpu time    0.0242: real time    0.0243
    SETDIJ:  cpu time    0.0013: real time    0.0013
     EDDAV:  cpu time    0.0379: real time    0.0382
       DOS:  cpu time    0.0003: real time    0.0003
    CHARGE:  cpu time    0.0186: real time    0.0186
    MIXING:  cpu time    0.0014: real time    0.0015
    --------------------------------------------
      LOOP:  cpu time    0.0848: real time    0.0864

 eigenvalue-minimisations  :    48
 total energy-change (2. order) :-0.3648495E-03  (-0.3751487E-05)
 number of electron       9.9999985 magnetization 
 augmentation part        0.6666598 magnetization 

 Broyden mixing:
  rms(total) = 0.43787E-03    rms(broyden)= 0.43766E-03
  rms(prec ) = 0.81110E-03
  weight for this iteration     100.00

 eigenvalues of (default mixing * dielectric matrix)
  average eigenvalue GAMMA=   1.9095
  5.1163  2.5722  2.0007  1.4937  1.3054  0.8934  0.8934  1.0011

 Free energy of the ion-electron system (eV)
  ---------------------------------------------------
  alpha Z        PSCENC =         0.43695755
  Ewald energy   TEWEN  =       110.78635065
  -Hartree energ DENC   =      -590.06268086
  -exchange      EXHF   =         0.00000000
  -V(xc)+E(xc)   XCENC  =        40.73323820
  PAW double counting   =       961.20183322     -963.61699538
  entropy T*S    EENTRO =         0.00057979
  eigenvalues    EBANDS =      -153.24204928
  atomic energy  EATOM  =       579.07123046
  Solvation  Ediel_sol  =         0.00000000
  ---------------------------------------------------
  free energy    TOTEN  =       -14.69153565 eV

  energy without entropy =      -14.69211544  energy(sigma->0) =      -14.69172892


--------------------------------------------------------------------------------------------------------




----------------------------------------- Iteration    1(  10)  ---------------------------------------


    POTLOK:  cpu time    0.0240: real time    0.0241
    SETDIJ:  cpu time    0.0013: real time    0.0013
     EDDAV:  cpu time    0.0378: real time    0.0380
       DOS:  cpu time    0.0001: real time    0.0001
    CHARGE:  cpu time    0.0184: real time    0.0185
    MIXING:  cpu time    0.0015: real time    0.0015
    --------------------------------------------
      LOOP:  cpu time    0.0843: real time    0.0857

 eigenvalue-minimisations  :    48
 total energy-change (2. order) :-0.6808535E-03  (-0.4331311E-06)
 number of electron       9.9999985 magnetization 
 augmentation part        0.6666842 magnetization 

 Broyden mixing:
  rms(total) = 0.28258E-03    rms(broyden)= 0.28234E-03
  rms(prec ) = 0.53211E-03
  weight for this iteration     100.00

 eigenvalues of (default mixing * dielectric matrix)
  average eigenvalue GAMMA=   2.1135
  6.0265  3.0283  2.4936  1.9688  1.5761  0.8953  0.8953  1.0687  1.0687

 Free energy of the ion-electron system (eV)
  ---------------------------------------------------
  alpha Z        PSCENC =         0.43695755
  Ewald energy   TEWEN  =       110.78635065
  -Hartree energ DENC   =      -590.05563631
  -exchange      EXHF   =         0.00000000
  -V(xc)+E(xc)   XCENC  =        40.73272689
  PAW double counting   =       961.24333304     -963.65838998
  entropy T*S    EENTRO =         0.00000000
  eigenvalues    EBANDS =      -153.24878881
  atomic energy  EATOM  =       579.07123046
  Solvation  Ediel_sol  =         0.00000000
  ---------------------------------------------------
  free energy    TOTEN  =       -14.69221651 eV

  energy without entropy =      -14.69221651  energy(sigma->0) =      -14.69221651


--------------------------------------------------------------------------------------------------------




----------------------------------------- Iteration    1(  11)  ---------------------------------------


    POTLOK:  cpu time    0.0240: real time    0.0241
    SETDIJ:  cpu time    0.0013: real time    0.0013
     EDDAV:  cpu time    0.0380: real time    0.0382
       DOS:  cpu time    0.0003: real time    0.0003
    CHARGE:  cpu time    0.0186: real time    0.0188
    MIXING:  cpu time    0.0016: real time    0.0016
    --------------------------------------------
      LOOP:  cpu time    0.0850: real time    0.0865

 eigenvalue-minimisations  :    48
 total energy-change (2. order) : 0.4586759E-03  (-0.8316095E-06)
 number of electron       9.9999985 magnetization 
 augmentation part        0.6666827 magnetization 

 Broyden mixing:
  rms(total) = 0.14230E-03    rms(broyden)= 0.14220E-03
  rms(prec ) = 0.20372E-03
  weight for this iteration     100.00

 eigenvalues of (default mixing * dielectric matrix)
  average eigenvalue GAMMA=   2.1785
  7.0932  3.6152  2.5486  1.9079  1.5710  1.2867  0.8955  0.8955  0.9616  1.0098

 Free energy of the ion-electron system (eV)
  ---------------------------------------------------
  alpha Z        PSCENC =         0.43695755
  Ewald energy   TEWEN  =       110.78635065
  -Hartree energ DENC   =      -590.04773961
  -exchange      EXHF   =         0.00000000
  -V(xc)+E(xc)   XCENC  =        40.73221177
  PAW double counting   =       961.42705584     -963.84193162
  entropy T*S    EENTRO =         0.00057979
  eigenvalues    EBANDS =      -153.25647266
  atomic energy  EATOM  =       579.07123046
  Solvation  Ediel_sol  =         0.00000000
  ---------------------------------------------------
  free energy    TOTEN  =       -14.69175783 eV

  energy without entropy =      -14.69233762  energy(sigma->0) =      -14.69195109


--------------------------------------------------------------------------------------------------------




----------------------------------------- Iteration    1(  12)  ---------------------------------------


    POTLOK:  cpu time    0.0242: real time    0.0243
    SETDIJ:  cpu time    0.0013: real time    0.0014
     EDDAV:  cpu time    0.0693: real time    0.0696
       DOS:  cpu time    0.0003: real time    0.0003
    CHARGE:  cpu time    0.0184: real time    0.0185
    MIXING:  cpu time    0.0017: real time    0.0017
    --------------------------------------------
      LOOP:  cpu time    0.1164: real time    0.1181

 eigenvalue-minimisations  :    96
 total energy-change (2. order) :-0.1742426E-04  (-0.3910909E-07)
 number of electron       9.9999985 magnetization 
 augmentation part        0.6666789 magnetization 

 Broyden mixing:
  rms(total) = 0.98636E-04    rms(broyden)= 0.98631E-04
  rms(prec ) = 0.13511E-03
  weight for this iteration     100.00

 eigenvalues of (default mixing * dielectric matrix)
  average eigenvalue GAMMA=   2.3951
  8.1181  4.4553  2.7949  2.5153  1.9025  1.6076  0.8935  0.8935  1.0859  1.0859
  0.9932

 Free energy of the ion-electron system (eV)
  ---------------------------------------------------
  alpha Z        PSCENC =         0.43695755
  Ewald energy   TEWEN  =       110.78635065
  -Hartree energ DENC   =      -590.04763796
  -exchange      EXHF   =         0.00000000
  -V(xc)+E(xc)   XCENC  =        40.73219106
  PAW double counting   =       961.40495840     -963.81988753
  entropy T*S    EENTRO =         0.00057979
  eigenvalues    EBANDS =      -153.25651768
  atomic energy  EATOM  =       579.07123046
  Solvation  Ediel_sol  =         0.00000000
  ---------------------------------------------------
  free energy    TOTEN  =       -14.69177526 eV

  energy without entropy =      -14.69235505  energy(sigma->0) =      -14.69196852


--------------------------------------------------------------------------------------------------------




----------------------------------------- Iteration    1(  13)  ---------------------------------------


    POTLOK:  cpu time    0.0248: real time    0.0249
    SETDIJ:  cpu time    0.0013: real time    0.0013
     EDDAV:  cpu time    0.0380: real time    0.0383
       DOS:  cpu time    0.0001: real time    0.0001
    CHARGE:  cpu time    0.0188: real time    0.0188
    MIXING:  cpu time    0.0018: real time    0.0018
    --------------------------------------------
      LOOP:  cpu time    0.0859: real time    0.0875

 eigenvalue-minimisations  :    48
 total energy-change (2. order) :-0.5970854E-03  (-0.7855379E-07)
 number of electron       9.9999985 magnetization 
 augmentation part        0.6666812 magnetization 

 Broyden mixing:
  rms(total) = 0.43267E-04    rms(broyden)= 0.43259E-04
  rms(prec ) = 0.49848E-04
  weight for this iteration     100.00

 eigenvalues of (default mixing * dielectric matrix)
  average eigenvalue GAMMA=   2.4110
  8.3464  4.7646  3.0882  2.5392  1.8442  1.8442  1.5932  0.8932  0.8932  1.0101
  1.0578  1.0578

 Free energy of the ion-electron system (eV)
  ---------------------------------------------------
  alpha Z        PSCENC =         0.43695755
  Ewald energy   TEWEN  =       110.78635065
  -Hartree energ DENC   =      -590.04688409
  -exchange      EXHF   =         0.00000000
  -V(xc)+E(xc)   XCENC  =        40.73216170
  PAW double counting   =       961.32620379     -963.74124023
  entropy T*S    EENTRO =         0.00000000
  eigenvalues    EBANDS =      -153.25715218
  atomic energy  EATOM  =       579.07123046
  Solvation  Ediel_sol  =         0.00000000
  ---------------------------------------------------
  free energy    TOTEN  =       -14.69237234 eV

  energy without entropy =      -14.69237234  energy(sigma->0) =      -14.69237234


--------------------------------------------------------------------------------------------------------




----------------------------------------- Iteration    1(  14)  ---------------------------------------


    POTLOK:  cpu time    0.0252: real time    0.0253
    SETDIJ:  cpu time    0.0013: real time    0.0013
     EDDAV:  cpu time    0.0524: real time    0.0527
       DOS:  cpu time    0.0001: real time    0.0001
    CHARGE:  cpu time    0.0184: real time    0.0185
    MIXING:  cpu time    0.0018: real time    0.0018
    --------------------------------------------
      LOOP:  cpu time    0.1004: real time    0.1021

 eigenvalue-minimisations  :    72
 total energy-change (2. order) :-0.2785711E-05  (-0.5988444E-08)
 number of electron       9.9999985 magnetization 
 augmentation part        0.6666806 magnetization 

 Broyden mixing:
  rms(total) = 0.12867E-04    rms(broyden)= 0.12866E-04
  rms(prec ) = 0.15919E-04
  weight for this iteration     100.00

 eigenvalues of (default mixing * dielectric matrix)
  average eigenvalue GAMMA=   2.4699
  8.6373  5.3464  3.6203  2.6304  2.4201  1.8983  1.6227  0.8935  0.8935  1.0876
  1.0876  0.9855  0.9855

 Free energy of the ion-electron system (eV)
  ---------------------------------------------------
  alpha Z        PSCENC =         0.43695755
  Ewald energy   TEWEN  =       110.78635065
  -Hartree energ DENC   =      -590.04669714
  -exchange      EXHF   =         0.00000000
  -V(xc)+E(xc)   XCENC  =        40.73215335
  PAW double counting   =       961.34349825     -963.75850235
  entropy T*S    EENTRO =         0.00000000
  eigenvalues    EBANDS =      -153.25736590
  atomic energy  EATOM  =       579.07123046
  Solvation  Ediel_sol  =         0.00000000
  ---------------------------------------------------
  free energy    TOTEN  =       -14.69237513 eV

  energy without entropy =      -14.69237513  energy(sigma->0) =      -14.69237513


--------------------------------------------------------------------------------------------------------




----------------------------------------- Iteration    1(  15)  ---------------------------------------


    POTLOK:  cpu time    0.0255: real time    0.0256
    SETDIJ:  cpu time    0.0014: real time    0.0014
     EDDAV:  cpu time    0.0382: real time    0.0384
       DOS:  cpu time    0.0001: real time    0.0001
    --------------------------------------------
      LOOP:  cpu time    0.0663: real time    0.0677

 eigenvalue-minimisations  :    48
 total energy-change (2. order) :-0.7781522E-06  (-0.7274288E-09)
 number of electron       9.9999985 magnetization 
 augmentation part        0.6666806 magnetization 

 Free energy of the ion-electron system (eV)
  ---------------------------------------------------
  alpha Z        PSCENC =         0.43695755
  Ewald energy   TEWEN  =       110.78635065
  -Hartree energ DENC   =      -590.04681081
  -exchange      EXHF   =         0.00000000
  -V(xc)+E(xc)   XCENC  =        40.73216090
  PAW double counting   =       961.35307259     -963.76806196
  entropy T*S    EENTRO =         0.00000000
  eigenvalues    EBANDS =      -153.25727529
  atomic energy  EATOM  =       579.07123046
  Solvation  Ediel_sol  =         0.00000000
  ---------------------------------------------------
  free energy    TOTEN  =       -14.69237590 eV

  energy without entropy =      -14.69237590  energy(sigma->0) =      -14.69237590


--------------------------------------------------------------------------------------------------------




 average (electrostatic) potential at core
  the test charge radii are     0.6991  0.7215
  (the norm of the test charge is              1.0000)
       1 -61.5045       2 -83.8376
 
 
 
 E-fermi :  -8.7585     XC(G=0):  -0.6636     alpha+bet : -0.1751


 k-point     1 :       0.0000    0.0000    0.0000
  band No.  band energies     occupation 
      1     -29.8320      2.00000
      2     -13.9198      2.00000
      3     -12.0263      2.00000
      4     -12.0263      2.00000
      5      -8.8242      2.00000
      6      -1.5805      0.00000
      7      -1.5805      0.00000
      8      -0.2224      0.00000
      9       1.0586      0.00000
     10       1.1720      0.00000
     11       1.1720      0.00000
     12       1.2885      0.00000
     13       1.3060      0.00000
     14       1.4147      0.00000
     15       2.5290      0.00000
     16       2.5511      0.00000
     17       2.5687      0.00000
     18       2.5687      0.00000
     19       2.7873      0.00000
     20       2.7873      0.00000
     21       2.7981      0.00000
     22       2.8183      0.00000
     23       2.8821      0.00000
     24       2.8951      0.00000


--------------------------------------------------------------------------------------------------------


 soft charge-density along one line, spin component           1
         0         1         2         3         4         5         6         7         8         9
 total charge-density along one line
 
 pseudopotential strength for first ion, spin component:           1
 10.405  13.842   0.000   0.029   0.000  -0.000  -0.098  -0.000
 13.842  18.413   0.000   0.038   0.000  -0.000  -0.129  -0.000
  0.000   0.000  -4.531  -0.000  -0.000   8.868   0.000   0.000
  0.029   0.038  -0.000  -4.551   0.000   0.000   8.893  -0.000
  0.000   0.000  -0.000   0.000  -4.531   0.000  -0.000   8.868
 -0.000  -0.000   8.868   0.000   0.000 -19.503  -0.000  -0.000
 -0.098  -0.129   0.000   8.893  -0.000  -0.000 -19.522   0.000
 -0.000  -0.000   0.000  -0.000   8.868  -0.000   0.000 -19.503
 total augmentation occupancy for first ion, spin component:           1
  8.309  -3.921   0.000   2.469   0.000   0.000   0.435   0.000
 -3.921   2.253   0.000  -1.838   0.000   0.000  -0.272   0.000
  0.000   0.000   0.914  -0.000   0.000   0.080   0.000   0.000
  2.469  -1.838  -0.000   2.462   0.000  -0.000   0.257   0.000
  0.000   0.000   0.000   0.000   0.914   0.000   0.000   0.080
  0.000   0.000   0.080  -0.000   0.000   0.007   0.000   0.000
  0.435  -0.272   0.000   0.257   0.000   0.000   0.034  -0.000
  0.000   0.000   0.000   0.000   0.080   0.000  -0.000   0.007


------------------------ aborting loop because EDIFF is reached ----------------------------------------


    CHARGE:  cpu time    0.0234: real time    0.0235
    FORLOC:  cpu time    0.0016: real time    0.0016
    FORNL :  cpu time    0.0056: real time    0.0056
    STRESS:  cpu time    0.0756: real time    0.0759
    FORCOR:  cpu time    0.0261: real time    0.0262
    FORHAR:  cpu time    0.0066: real time    0.0066
    MIXING:  cpu time    0.0023: real time    0.0023
    OFIELD:  cpu time    0.0001: real time    0.0001

  FORCE on cell =-STRESS in cart. coord.  units (eV):
  Direction    XX          YY          ZZ          XY          YZ          ZX
  --------------------------------------------------------------------------------------
  Alpha Z     0.43696     0.43696     0.43696
  Ewald     -68.52687   -68.52687   247.84005     0.00000    -0.00000    -0.00000
  Hartree   160.77912   160.77912   268.48836    -0.00000    -0.00000    -0.00000
  E(xc)     -44.33168   -44.33168   -43.21631    -0.00000    -0.00000     0.00000
  Local    -230.22059  -230.22059  -621.47904    -0.00000    -0.00000    -0.00000
  n-local   -19.55607   -19.55607   -31.57322     0.00000     0.00000    -0.00000
  augment     6.25466     6.25466     5.43654    -0.00000    -0.00000    -0.00000
  Kinetic   192.84475   192.84475   177.92173    -0.00000    -0.00000     0.00000
  Fock        0.00000     0.00000     0.00000     0.00000     0.00000     0.00000
  -------------------------------------------------------------------------------------
  Total      -2.31972    -2.31972     3.85508     0.00000    -0.00000     0.00000
  in kB      -3.71661    -3.71661     6.17652     0.00000    -0.00000     0.00000
  external pressure =       -0.42 kB  Pullay stress =        0.00 kB


 VOLUME and BASIS-vectors are now :
 -----------------------------------------------------------------------------
  energy-cutoff  :      350.00
  volume of cell :     1000.00
      direct lattice vectors                 reciprocal lattice vectors
    10.000000000  0.000000000  0.000000000     0.100000000  0.000000000  0.000000000
     0.000000000 10.000000000  0.000000000     0.000000000  0.100000000  0.000000000
     0.000000000  0.000000000 10.000000000     0.000000000  0.000000000  0.100000000

  length of vectors
    10.000000000 10.000000000 10.000000000     0.100000000  0.100000000  0.100000000


 FORCES acting on ions
    electron-ion (+dipol)            ewald-force                    non-local-force                 convergence-correction
 -----------------------------------------------------------------------------------------------
   0.129E-12 0.159E-12 0.250E+03   0.415E-17 0.139E-16 -.284E+03   0.000E+00 0.000E+00 0.280E+02   -.483E-14 0.281E-13 0.494E-04
   0.487E-12 -.557E-12 -.215E+03   0.386E-16 0.737E-17 0.284E+03   -.511E-27 0.000E+00 -.628E+02   0.348E-14 0.513E-13 0.184E-04
 -----------------------------------------------------------------------------------------------
   0.616E-12 -.398E-12 0.348E+02   0.428E-16 0.212E-16 0.000E+00   -.511E-27 0.000E+00 -.348E+02   -.136E-14 0.794E-13 0.679E-04
 
 
 POSITION                                       TOTAL-FORCE (eV/Angst)
 -----------------------------------------------------------------------------------
      5.00000      5.00000      4.45000        -0.000000      0.000000     -5.786651
      5.00000      5.00000      5.55000         0.000000     -0.000000      5.786651
 -----------------------------------------------------------------------------------
    total drift:                                0.000000     -0.000000      0.009855


--------------------------------------------------------------------------------------------------------



  FREE ENERGIE OF THE ION-ELECTRON SYSTEM (eV)
  ---------------------------------------------------
  free  energy   TOTEN  =       -14.69237590 eV

  energy  without entropy=      -14.69237590  energy(sigma->0) =      -14.69237590
 


--------------------------------------------------------------------------------------------------------


    POTLOK:  cpu time    0.0284: real time    0.0285


--------------------------------------------------------------------------------------------------------


 stress matrix after NEB project (eV)
     -2.31972     -0.00000      0.00000
      0.00000     -2.31972      0.00000
      0.00000     -0.00000      3.85508
  FORCES: max atom, RMS     5.786651    5.786651
  FORCE total and by dimension    8.183560    5.786651
  Stress total and by dimension    5.062003    3.855081


--------------------------------------------------------------------------------------------------------


    WAVPRE:  cpu time    0.0064: real time    0.0067
 FEWALD executed in parallel
    FEWALD:  cpu time    0.0003: real time    0.0003
    ORTHCH:  cpu time    0.0042: real time    0.0043
     LOOP+:  cpu time    2.5825: real time    2.6640


----------------------------------------- Iteration    2(   1)  ---------------------------------------


    POTLOK:  cpu time    0.0257: real time    0.0258
    SETDIJ:  cpu time    0.0013: real time    0.0013
     EDDAV:  cpu time    0.0385: real time    0.0387
       DOS:  cpu time    0.0001: real time    0.0001
    CHARGE:  cpu time    0.0189: real time    0.0190
    MIXING:  cpu time    0.0010: real time    0.0010
    --------------------------------------------
      LOOP:  cpu time    0.0866: real time    0.0876

 eigenvalue-minimisations  :    48
 total energy-change (2. order) : 0.4358092E+01  (-0.6778340E+02)
 number of electron       9.9999930 magnetization 
 augmentation part        0.5547272 magnetization 

 Broyden mixing:
  rms(total) = 0.78016E+00    rms(broyden)= 0.77859E+00
  rms(prec ) = 0.10682E+01
  weight for this iteration     100.00

 Free energy of the ion-electron system (eV)
  ---------------------------------------------------
  alpha Z        PSCENC =         0.43695755
  Ewald energy   TEWEN  =         6.18958462
  -Hartree energ DENC   =      -515.46648113
  -exchange      EXHF   =         0.00000000
  -V(xc)+E(xc)   XCENC  =        38.89330494
  PAW double counting   =       961.35238407     -963.76737680
  entropy T*S    EENTRO =         0.00000000
  eigenvalues    EBANDS =      -117.04388718
  atomic energy  EATOM  =       579.07123046
  Solvation  Ediel_sol  =         0.00000000
  ---------------------------------------------------
  free energy    TOTEN  =       -10.33428347 eV

  energy without entropy =      -10.33428347  energy(sigma->0) =      -10.33428347


--------------------------------------------------------------------------------------------------------




----------------------------------------- Iteration    2(   2)  ---------------------------------------


    POTLOK:  cpu time    0.0226: real time    0.0227
    SETDIJ:  cpu time    0.0013: real time    0.0013
     EDDAV:  cpu time    0.0637: real time    0.0641
       DOS:  cpu time    0.0001: real time    0.0001
    CHARGE:  cpu time    0.0220: real time    0.0221
    MIXING:  cpu time    0.0013: real time    0.0013
    --------------------------------------------
      LOOP:  cpu time    0.1120: real time    0.1138

 eigenvalue-minimisations  :    72
 total energy-change (2. order) :-0.7989173E-01  (-0.2728857E+01)
 number of electron       9.9999958 magnetization 
 augmentation part        0.3151581 magnetization 

 Broyden mixing:
  rms(total) = 0.10141E+01    rms(broyden)= 0.10130E+01
  rms(prec ) = 0.14313E+01
  weight for this iteration     100.00

 eigenvalues of (default mixing * dielectric matrix)
  average eigenvalue GAMMA=   0.3798
  0.3798

 Free energy of the ion-electron system (eV)
  ---------------------------------------------------
  alpha Z        PSCENC =         0.43695755
  Ewald energy   TEWEN  =         6.18958462
  -Hartree energ DENC   =      -512.52557814
  -exchange      EXHF   =         0.00000000
  -V(xc)+E(xc)   XCENC  =        38.52855449
  PAW double counting   =       787.99024590     -790.34555490
  entropy T*S    EENTRO =         0.00000000
  eigenvalues    EBANDS =      -119.75961520
  atomic energy  EATOM  =       579.07123046
  Solvation  Ediel_sol  =         0.00000000
  ---------------------------------------------------
  free energy    TOTEN  =       -10.41417520 eV

  energy without entropy =      -10.41417520  energy(sigma->0) =      -10.41417520


--------------------------------------------------------------------------------------------------------




----------------------------------------- Iteration    2(   3)  ---------------------------------------


    POTLOK:  cpu time    0.0232: real time    0.0233
    SETDIJ:  cpu time    0.0015: real time    0.0015
     EDDAV:  cpu time    0.0415: real time    0.0417
       DOS:  cpu time    0.0001: real time    0.0001
    CHARGE:  cpu time    0.0204: real time    0.0205
    MIXING:  cpu time    0.0014: real time    0.0014
    --------------------------------------------
      LOOP:  cpu time    0.0892: real time    0.0909

 eigenvalue-minimisations  :    48
 total energy-change (2. order) : 0.7365621E+00  (-0.1835463E+01)
 number of electron       9.9999932 magnetization 
 augmentation part        0.5369120 magnetization 

 Broyden mixing:
  rms(total) = 0.38731E+00    rms(broyden)= 0.38500E+00
  rms(prec ) = 0.54839E+00
  weight for this iteration     100.00

 eigenvalues of (default mixing * dielectric matrix)
  average eigenvalue GAMMA=   0.9293
  1.5588  0.2998

 Free energy of the ion-electron system (eV)
  ---------------------------------------------------
  alpha Z        PSCENC =         0.43695755
  Ewald energy   TEWEN  =         6.18958462
  -Hartree energ DENC   =      -503.76731636
  -exchange      EXHF   =         0.00000000
  -V(xc)+E(xc)   XCENC  =        38.06848520
  PAW double counting   =       732.50666993     -734.72775389
  entropy T*S    EENTRO =         0.00000000
  eigenvalues    EBANDS =      -127.45547063
  atomic energy  EATOM  =       579.07123046
  Solvation  Ediel_sol  =         0.00000000
  ---------------------------------------------------
  free energy    TOTEN  =        -9.67761310 eV

  energy without entropy =       -9.67761310  energy(sigma->0) =       -9.67761310


--------------------------------------------------------------------------------------------------------




----------------------------------------- Iteration    2(   4)  ---------------------------------------


    POTLOK:  cpu time    0.0236: real time    0.0237
    SETDIJ:  cpu time    0.0014: real time    0.0014
     EDDAV:  cpu time    0.0560: real time    0.0564
       DOS:  cpu time    0.0002: real time    0.0002
    CHARGE:  cpu time    0.0190: real time    0.0191
    MIXING:  cpu time    0.0012: real time    0.0012
    --------------------------------------------
      LOOP:  cpu time    0.1027: real time    0.1046

 eigenvalue-minimisations  :    72
 total energy-change (2. order) : 0.1780024E+00  (-0.1622799E+00)
 number of electron       9.9999937 magnetization 
 augmentation part        0.4908109 magnetization 

 Broyden mixing:
  rms(total) = 0.11944E+00    rms(broyden)= 0.11941E+00
  rms(prec ) = 0.13587E+00
  weight for this iteration     100.00

 eigenvalues of (default mixing * dielectric matrix)
  average eigenvalue GAMMA=   1.2702
  0.3014  1.1298  2.3794

 Free energy of the ion-electron system (eV)
  ---------------------------------------------------
  alpha Z        PSCENC =         0.43695755
  Ewald energy   TEWEN  =         6.18958462
  -Hartree energ DENC   =      -502.16627644
  -exchange      EXHF   =         0.00000000
  -V(xc)+E(xc)   XCENC  =        37.91679071
  PAW double counting   =       610.25655728     -612.37539513
  entropy T*S    EENTRO =         0.00115958
  eigenvalues    EBANDS =      -128.83021933
  atomic energy  EATOM  =       579.07123046
  Solvation  Ediel_sol  =         0.00000000
  ---------------------------------------------------
  free energy    TOTEN  =        -9.49961070 eV

  energy without entropy =       -9.50077029  energy(sigma->0) =       -9.49999723


--------------------------------------------------------------------------------------------------------




----------------------------------------- Iteration    2(   5)  ---------------------------------------


    POTLOK:  cpu time    0.0226: real time    0.0227
    SETDIJ:  cpu time    0.0013: real time    0.0013
     EDDAV:  cpu time    0.0566: real time    0.0569
       DOS:  cpu time    0.0003: real time    0.0003
    CHARGE:  cpu time    0.0340: real time    0.0663
    MIXING:  cpu time    0.0012: real time    0.0013
    --------------------------------------------
      LOOP:  cpu time    0.1171: real time    0.1511

 eigenvalue-minimisations  :    48
 total energy-change (2. order) :-0.1498724E-01  (-0.6951154E-02)
 number of electron       9.9999938 magnetization 
 augmentation part        0.4831081 magnetization 

 Broyden mixing:
  rms(total) = 0.39222E-01    rms(broyden)= 0.39137E-01
  rms(prec ) = 0.54071E-01
  weight for this iteration     100.00

 eigenvalues of (default mixing * dielectric matrix)
  average eigenvalue GAMMA=   1.3755
  2.6121  0.3014  1.6157  0.9725

 Free energy of the ion-electron system (eV)
  ---------------------------------------------------
  alpha Z        PSCENC =         0.43695755
  Ewald energy   TEWEN  =         6.18958462
  -Hartree energ DENC   =      -501.33782182
  -exchange      EXHF   =         0.00000000
  -V(xc)+E(xc)   XCENC  =        37.84628275
  PAW double counting   =       538.48826775     -540.55488143
  entropy T*S    EENTRO =         0.00115958
  eigenvalues    EBANDS =      -129.65537741
  atomic energy  EATOM  =       579.07123046
  Solvation  Ediel_sol  =         0.00000000
  ---------------------------------------------------
  free energy    TOTEN  =        -9.51459794 eV

  energy without entropy =       -9.51575752  energy(sigma->0) =       -9.51498446


--------------------------------------------------------------------------------------------------------




----------------------------------------- Iteration    2(   6)  ---------------------------------------


    POTLOK:  cpu time    0.0230: real time    0.0231
    SETDIJ:  cpu time    0.0013: real time    0.0014
     EDDAV:  cpu time    0.0707: real time    0.0711
       DOS:  cpu time    0.0003: real time    0.0003
    CHARGE:  cpu time    0.0188: real time    0.0190
    MIXING:  cpu time    0.0013: real time    0.0013
    --------------------------------------------
      LOOP:  cpu time    0.1165: real time    0.1184

 eigenvalue-minimisations  :    96
 total energy-change (2. order) :-0.3256196E-02  (-0.2528869E-02)
 number of electron       9.9999937 magnetization 
 augmentation part        0.4905526 magnetization 

 Broyden mixing:
  rms(total) = 0.19229E-01    rms(broyden)= 0.19195E-01
  rms(prec ) = 0.33581E-01
  weight for this iteration     100.00

 eigenvalues of (default mixing * dielectric matrix)
  average eigenvalue GAMMA=   1.3717
  2.6201  0.3015  1.8364  0.9512  1.1495

 Free energy of the ion-electron system (eV)
  ---------------------------------------------------
  alpha Z        PSCENC =         0.43695755
  Ewald energy   TEWEN  =         6.18958462
  -Hartree energ DENC   =      -501.45360408
  -exchange      EXHF   =         0.00000000
  -V(xc)+E(xc)   XCENC  =        37.85249643
  PAW double counting   =       522.68409081     -524.75013080
  entropy T*S    EENTRO =         0.00115958
  eigenvalues    EBANDS =      -129.54963871
  atomic energy  EATOM  =       579.07123046
  Solvation  Ediel_sol  =         0.00000000
  ---------------------------------------------------
  free energy    TOTEN  =        -9.51785413 eV

  energy without entropy =       -9.51901371  energy(sigma->0) =       -9.51824066


--------------------------------------------------------------------------------------------------------




----------------------------------------- Iteration    2(   7)  ---------------------------------------


    POTLOK:  cpu time    0.0229: real time    0.0230
    SETDIJ:  cpu time    0.0014: real time    0.0014
     EDDAV:  cpu time    0.0377: real time    0.0379
       DOS:  cpu time    0.0001: real time    0.0001
    CHARGE:  cpu time    0.0184: real time    0.0185
    MIXING:  cpu time    0.0013: real time    0.0013
    --------------------------------------------
      LOOP:  cpu time    0.0829: real time    0.0847

 eigenvalue-minimisations  :    48
 total energy-change (2. order) :-0.2134781E-02  (-0.5662854E-03)
 number of electron       9.9999938 magnetization 
 augmentation part        0.4865736 magnetization 

 Broyden mixing:
  rms(total) = 0.52293E-02    rms(broyden)= 0.51878E-02
  rms(prec ) = 0.13495E-01
  weight for this iteration     100.00

 eigenvalues of (default mixing * dielectric matrix)
  average eigenvalue GAMMA=   1.5433
  2.8288  0.3015  2.3364  1.7746  0.9527  1.0656

 Free energy of the ion-electron system (eV)
  ---------------------------------------------------
  alpha Z        PSCENC =         0.43695755
  Ewald energy   TEWEN  =         6.18958462
  -Hartree energ DENC   =      -501.59038549
  -exchange      EXHF   =         0.00000000
  -V(xc)+E(xc)   XCENC  =        37.85795151
  PAW double counting   =       522.59312119     -524.66638609
  entropy T*S    EENTRO =         0.00000000
  eigenvalues    EBANDS =      -129.41206267
  atomic energy  EATOM  =       579.07123046
  Solvation  Ediel_sol  =         0.00000000
  ---------------------------------------------------
  free energy    TOTEN  =        -9.51998891 eV

  energy without entropy =       -9.51998891  energy(sigma->0) =       -9.51998891


--------------------------------------------------------------------------------------------------------




----------------------------------------- Iteration    2(   8)  ---------------------------------------


    POTLOK:  cpu time    0.0231: real time    0.0232
    SETDIJ:  cpu time    0.0013: real time    0.0013
     EDDAV:  cpu time    0.0532: real time    0.0538
       DOS:  cpu time    0.0003: real time    0.0003
    CHARGE:  cpu time    0.0186: real time    0.0187
    MIXING:  cpu time    0.0014: real time    0.0014
    --------------------------------------------
      LOOP:  cpu time    0.0991: real time    0.1013

 eigenvalue-minimisations  :    72
 total energy-change (2. order) :-0.2055503E-02  (-0.1126170E-03)
 number of electron       9.9999938 magnetization 
 augmentation part        0.4867376 magnetization 

 Broyden mixing:
  rms(total) = 0.29307E-02    rms(broyden)= 0.29294E-02
  rms(prec ) = 0.59703E-02
  weight for this iteration     100.00

 eigenvalues of (default mixing * dielectric matrix)
  average eigenvalue GAMMA=   1.5857
  3.2255  2.6730  0.3015  1.6914  1.2688  0.9698  0.9698

 Free energy of the ion-electron system (eV)
  ---------------------------------------------------
  alpha Z        PSCENC =         0.43695755
  Ewald energy   TEWEN  =         6.18958462
  -Hartree energ DENC   =      -501.29183894
  -exchange      EXHF   =         0.00000000
  -V(xc)+E(xc)   XCENC  =        37.83700319
  PAW double counting   =       523.18549764     -525.26173061
  entropy T*S    EENTRO =         0.00115958
  eigenvalues    EBANDS =      -129.68990792
  atomic energy  EATOM  =       579.07123046
  Solvation  Ediel_sol  =         0.00000000
  ---------------------------------------------------
  free energy    TOTEN  =        -9.52204442 eV

  energy without entropy =       -9.52320400  energy(sigma->0) =       -9.52243094


--------------------------------------------------------------------------------------------------------




----------------------------------------- Iteration    2(   9)  ---------------------------------------


    POTLOK:  cpu time    0.0234: real time    0.0235
    SETDIJ:  cpu time    0.0013: real time    0.0013
     EDDAV:  cpu time    0.0693: real time    0.0697
       DOS:  cpu time    0.0001: real time    0.0001
    CHARGE:  cpu time    0.0182: real time    0.0183
    MIXING:  cpu time    0.0014: real time    0.0014
    --------------------------------------------
      LOOP:  cpu time    0.1149: real time    0.1168

 eigenvalue-minimisations  :    96
 total energy-change (2. order) :-0.2079635E-02  (-0.2727988E-04)
 number of electron       9.9999938 magnetization 
 augmentation part        0.4874348 magnetization 

 Broyden mixing:
  rms(total) = 0.32914E-02    rms(broyden)= 0.32885E-02
  rms(prec ) = 0.56191E-02
  weight for this iteration     100.00

 eigenvalues of (default mixing * dielectric matrix)
  average eigenvalue GAMMA=   1.9602
  5.6510  0.3015  2.5843  2.3501  1.7466  0.9865  0.9970  1.0647

 Free energy of the ion-electron system (eV)
  ---------------------------------------------------
  alpha Z        PSCENC =         0.43695755
  Ewald energy   TEWEN  =         6.18958462
  -Hartree energ DENC   =      -501.27509943
  -exchange      EXHF   =         0.00000000
  -V(xc)+E(xc)   XCENC  =        37.83616809
  PAW double counting   =       524.12099397     -526.19655234
  entropy T*S    EENTRO =         0.00000000
  eigenvalues    EBANDS =      -129.70740697
  atomic energy  EATOM  =       579.07123046
  Solvation  Ediel_sol  =         0.00000000
  ---------------------------------------------------
  free energy    TOTEN  =        -9.52412405 eV

  energy without entropy =       -9.52412405  energy(sigma->0) =       -9.52412405


--------------------------------------------------------------------------------------------------------




----------------------------------------- Iteration    2(  10)  ---------------------------------------


    POTLOK:  cpu time    0.0237: real time    0.0238
    SETDIJ:  cpu time    0.0013: real time    0.0014
     EDDAV:  cpu time    0.0523: real time    0.0526
       DOS:  cpu time    0.0001: real time    0.0001
    CHARGE:  cpu time    0.0188: real time    0.0189
    MIXING:  cpu time    0.0016: real time    0.0016
    --------------------------------------------
      LOOP:  cpu time    0.0992: real time    0.1009

 eigenvalue-minimisations  :    72
 total energy-change (2. order) :-0.8916922E-03  (-0.2638918E-04)
 number of electron       9.9999938 magnetization 
 augmentation part        0.4867253 magnetization 

 Broyden mixing:
  rms(total) = 0.11666E-02    rms(broyden)= 0.11582E-02
  rms(prec ) = 0.21178E-02
  weight for this iteration     100.00

 eigenvalues of (default mixing * dielectric matrix)
  average eigenvalue GAMMA=   2.0253
  6.1998  3.0129  2.5422  0.3015  1.5784  1.5784  0.9629  1.0260  1.0260

 Free energy of the ion-electron system (eV)
  ---------------------------------------------------
  alpha Z        PSCENC =         0.43695755
  Ewald energy   TEWEN  =         6.18958462
  -Hartree energ DENC   =      -501.30353258
  -exchange      EXHF   =         0.00000000
  -V(xc)+E(xc)   XCENC  =        37.83800082
  PAW double counting   =       523.63005327     -525.70332779
  entropy T*S    EENTRO =         0.00000000
  eigenvalues    EBANDS =      -129.68398209
  atomic energy  EATOM  =       579.07123046
  Solvation  Ediel_sol  =         0.00000000
  ---------------------------------------------------
  free energy    TOTEN  =        -9.52501574 eV

  energy without entropy =       -9.52501574  energy(sigma->0) =       -9.52501574


--------------------------------------------------------------------------------------------------------




----------------------------------------- Iteration    2(  11)  ---------------------------------------


    POTLOK:  cpu time    0.0241: real time    0.0242
    SETDIJ:  cpu time    0.0013: real time    0.0013
     EDDAV:  cpu time    0.0399: real time    0.0402
       DOS:  cpu time    0.0002: real time    0.0002
[...]
 -----------------------------------------------------------------------------------------------
   0.128E-12 -.729E-12 0.233E+03   -.253E-17 -.275E-16 -.261E+03   0.454E-27 0.000E+00 0.280E+02   0.585E-14 0.330E-13 0.212E-04
   0.470E-12 0.523E-12 -.202E+03   0.453E-16 0.487E-16 0.261E+03   0.707E-27 0.000E+00 -.593E+02   0.266E-14 0.557E-13 -.482E-04
 -----------------------------------------------------------------------------------------------
   0.598E-12 -.206E-12 0.313E+02   0.428E-16 0.212E-16 0.000E+00   0.116E-26 0.000E+00 -.313E+02   0.852E-14 0.887E-13 -.270E-04
 
 
 POSITION                                       TOTAL-FORCE (eV/Angst)
 -----------------------------------------------------------------------------------
      5.00000      5.00000      4.42613         0.000000      0.000000      0.430281
      5.00000      5.00000      5.57387         0.000000     -0.000000     -0.430281
 -----------------------------------------------------------------------------------
    total drift:                                0.000000     -0.000000      0.013897


--------------------------------------------------------------------------------------------------------



  FREE ENERGIE OF THE ION-ELECTRON SYSTEM (eV)
  ---------------------------------------------------
  free  energy   TOTEN  =       -14.81188941 eV

  energy  without entropy=      -14.81188941  energy(sigma->0) =      -14.81188941
 
 d Force = 0.3288252E-01[ 0.929E-02, 0.565E-01]  d Energy = 0.3408936E-01-0.121E-02
 d Force =-0.5521652E+01[-0.563E+01,-0.542E+01]  d Ewald  =-0.5520687E+01-0.965E-03


--------------------------------------------------------------------------------------------------------


    POTLOK:  cpu time    0.0275: real time    0.0277


--------------------------------------------------------------------------------------------------------


 stress matrix after NEB project (eV)
     -2.32892      0.00000      0.00000
      0.00000     -2.32892      0.00000
      0.00000      0.00000     -3.00995
  FORCES: max atom, RMS     0.430281    0.430281
  FORCE total and by dimension    0.608509    0.430281
  Stress total and by dimension    4.461788    3.009954


--------------------------------------------------------------------------------------------------------


    WAVPRE:  cpu time    0.0065: real time    0.0067
 FEWALD executed in parallel
    FEWALD:  cpu time    0.0002: real time    0.0002
    ORTHCH:  cpu time    0.0041: real time    0.0041
     LOOP+:  cpu time    1.4693: real time    1.5448


----------------------------------------- Iteration    6(   1)  ---------------------------------------


    POTLOK:  cpu time    0.0255: real time    0.0257
    SETDIJ:  cpu time    0.0013: real time    0.0013
     EDDAV:  cpu time    0.0374: real time    0.0376
       DOS:  cpu time    0.0001: real time    0.0001
    CHARGE:  cpu time    0.0183: real time    0.0185
    MIXING:  cpu time    0.0010: real time    0.0010
    --------------------------------------------
      LOOP:  cpu time    0.0849: real time    0.0861

 eigenvalue-minimisations  :    48
 total energy-change (2. order) :-0.9190713E-03  (-0.4135363E-02)
 number of electron      10.0000021 magnetization 
 augmentation part        0.6420047 magnetization 

 Broyden mixing:
  rms(total) = 0.92953E-02    rms(broyden)= 0.92572E-02
  rms(prec ) = 0.10465E-01
  weight for this iteration     100.00

 Free energy of the ion-electron system (eV)
  ---------------------------------------------------
  alpha Z        PSCENC =         0.43695755
  Ewald energy   TEWEN  =        98.83356964
  -Hartree energ DENC   =      -580.33115653
  -exchange      EXHF   =         0.00000000
  -V(xc)+E(xc)   XCENC  =        40.36784225
  PAW double counting   =       871.17202837     -873.51240289
  entropy T*S    EENTRO =         0.00000000
  eigenvalues    EBANDS =      -150.85087718
  atomic energy  EATOM  =       579.07123046
  Solvation  Ediel_sol  =         0.00000000
  ---------------------------------------------------
  free energy    TOTEN  =       -14.81280834 eV

  energy without entropy =      -14.81280834  energy(sigma->0) =      -14.81280834


--------------------------------------------------------------------------------------------------------




----------------------------------------- Iteration    6(   2)  ---------------------------------------


    POTLOK:  cpu time    0.0254: real time    0.0257
    SETDIJ:  cpu time    0.0013: real time    0.0013
     EDDAV:  cpu time    0.0373: real time    0.0375
       DOS:  cpu time    0.0001: real time    0.0001
    CHARGE:  cpu time    0.0185: real time    0.0186
    MIXING:  cpu time    0.0011: real time    0.0011
    --------------------------------------------
      LOOP:  cpu time    0.0850: real time    0.0873

 eigenvalue-minimisations  :    48
 total energy-change (2. order) : 0.6233732E-04  (-0.6849215E-04)
 number of electron      10.0000021 magnetization 
 augmentation part        0.6423540 magnetization 

 Broyden mixing:
  rms(total) = 0.43241E-02    rms(broyden)= 0.43200E-02
  rms(prec ) = 0.49831E-02
  weight for this iteration     100.00

 eigenvalues of (default mixing * dielectric matrix)
  average eigenvalue GAMMA=   1.4864
  1.4864

 Free energy of the ion-electron system (eV)
  ---------------------------------------------------
  alpha Z        PSCENC =         0.43695755
  Ewald energy   TEWEN  =        98.83356964
  -Hartree energ DENC   =      -580.44334710
  -exchange      EXHF   =         0.00000000
  -V(xc)+E(xc)   XCENC  =        40.37442302
  PAW double counting   =       874.29609957     -876.63856756
  entropy T*S    EENTRO =         0.00000000
  eigenvalues    EBANDS =      -150.74311158
  atomic energy  EATOM  =       579.07123046
  Solvation  Ediel_sol  =         0.00000000
  ---------------------------------------------------
  free energy    TOTEN  =       -14.81274600 eV

  energy without entropy =      -14.81274600  energy(sigma->0) =      -14.81274600


--------------------------------------------------------------------------------------------------------




----------------------------------------- Iteration    6(   3)  ---------------------------------------


    POTLOK:  cpu time    0.0257: real time    0.0258
    SETDIJ:  cpu time    0.0013: real time    0.0013
     EDDAV:  cpu time    0.0686: real time    0.0691
       DOS:  cpu time    0.0001: real time    0.0001
    CHARGE:  cpu time    0.0182: real time    0.0184
    MIXING:  cpu time    0.0011: real time    0.0011
    --------------------------------------------
      LOOP:  cpu time    0.1164: real time    0.1190

 eigenvalue-minimisations  :    96
 total energy-change (2. order) : 0.2616575E-04  (-0.1296232E-04)
 number of electron      10.0000021 magnetization 
 augmentation part        0.6420501 magnetization 

 Broyden mixing:
  rms(total) = 0.14092E-02    rms(broyden)= 0.14068E-02
  rms(prec ) = 0.15717E-02
  weight for this iteration     100.00

 eigenvalues of (default mixing * dielectric matrix)
  average eigenvalue GAMMA=   1.3784
  0.8662  1.8905

 Free energy of the ion-electron system (eV)
  ---------------------------------------------------
  alpha Z        PSCENC =         0.43695755
  Ewald energy   TEWEN  =        98.83356964
  -Hartree energ DENC   =      -580.55157536
  -exchange      EXHF   =         0.00000000
  -V(xc)+E(xc)   XCENC  =        40.38045231
  PAW double counting   =       876.59417875     -878.93951939
  entropy T*S    EENTRO =         0.00000000
  eigenvalues    EBANDS =      -150.63801378
  atomic energy  EATOM  =       579.07123046
  Solvation  Ediel_sol  =         0.00000000
  ---------------------------------------------------
  free energy    TOTEN  =       -14.81271983 eV

  energy without entropy =      -14.81271983  energy(sigma->0) =      -14.81271983


--------------------------------------------------------------------------------------------------------




----------------------------------------- Iteration    6(   4)  ---------------------------------------


    POTLOK:  cpu time    0.0253: real time    0.0255
    SETDIJ:  cpu time    0.0013: real time    0.0013
     EDDAV:  cpu time    0.0375: real time    0.0377
       DOS:  cpu time    0.0001: real time    0.0001
    CHARGE:  cpu time    0.0194: real time    0.0195
    MIXING:  cpu time    0.0012: real time    0.0012
    --------------------------------------------
      LOOP:  cpu time    0.0862: real time    0.0886

 eigenvalue-minimisations  :    48
 total energy-change (2. order) : 0.1104215E-05  (-0.8253741E-06)
 number of electron      10.0000021 magnetization 
 augmentation part        0.6421165 magnetization 

 Broyden mixing:
  rms(total) = 0.71608E-03    rms(broyden)= 0.71571E-03
  rms(prec ) = 0.79532E-03
  weight for this iteration     100.00

 eigenvalues of (default mixing * dielectric matrix)
  average eigenvalue GAMMA=   1.3759
  2.2009  0.9634  0.9634

 Free energy of the ion-electron system (eV)
  ---------------------------------------------------
  alpha Z        PSCENC =         0.43695755
  Ewald energy   TEWEN  =        98.83356964
  -Hartree energ DENC   =      -580.55687322
  -exchange      EXHF   =         0.00000000
  -V(xc)+E(xc)   XCENC  =        40.38075489
  PAW double counting   =       877.43727901     -879.78305106
  entropy T*S    EENTRO =         0.00000000
  eigenvalues    EBANDS =      -150.63258600
  atomic energy  EATOM  =       579.07123046
  Solvation  Ediel_sol  =         0.00000000
  ---------------------------------------------------
  free energy    TOTEN  =       -14.81271873 eV

  energy without entropy =      -14.81271873  energy(sigma->0) =      -14.81271873


--------------------------------------------------------------------------------------------------------




----------------------------------------- Iteration    6(   5)  ---------------------------------------


    POTLOK:  cpu time    0.0254: real time    0.0255
    SETDIJ:  cpu time    0.0013: real time    0.0013
     EDDAV:  cpu time    0.0377: real time    0.0381
       DOS:  cpu time    0.0001: real time    0.0001
    --------------------------------------------
      LOOP:  cpu time    0.0658: real time    0.0680

 eigenvalue-minimisations  :    48
 total energy-change (2. order) :-0.1142747E-06  (-0.7319073E-07)
 number of electron      10.0000021 magnetization 
 augmentation part        0.6421165 magnetization 

 Free energy of the ion-electron system (eV)
  ---------------------------------------------------
  alpha Z        PSCENC =         0.43695755
  Ewald energy   TEWEN  =        98.83356964
  -Hartree energ DENC   =      -580.55592146
  -exchange      EXHF   =         0.00000000
  -V(xc)+E(xc)   XCENC  =        40.38069985
  PAW double counting   =       877.86653559     -880.21243390
  entropy T*S    EENTRO =         0.00000000
  eigenvalues    EBANDS =      -150.63335658
  atomic energy  EATOM  =       579.07123046
  Solvation  Ediel_sol  =         0.00000000
  ---------------------------------------------------
  free energy    TOTEN  =       -14.81271884 eV

  energy without entropy =      -14.81271884  energy(sigma->0) =      -14.81271884


--------------------------------------------------------------------------------------------------------




 average (electrostatic) potential at core
  the test charge radii are     0.6991  0.7215
  (the norm of the test charge is              1.0000)
       1 -61.6653       2 -83.6264
 
 
 
 E-fermi :  -8.8595     XC(G=0):  -0.6859     alpha+bet : -0.1751


 k-point     1 :       0.0000    0.0000    0.0000
  band No.  band energies     occupation 
      1     -29.1785      2.00000
      2     -13.9507      2.00000
      3     -11.6310      2.00000
      4     -11.6310      2.00000
      5      -8.9255      2.00000
      6      -2.0073      0.00000
      7      -2.0073      0.00000
      8      -0.2431      0.00000
      9       1.0547      0.00000
     10       1.1548      0.00000
     11       1.1548      0.00000
     12       1.2576      0.00000
     13       1.2916      0.00000
     14       1.3813      0.00000
     15       2.5161      0.00000
     16       2.5215      0.00000
     17       2.5804      0.00000
     18       2.5804      0.00000
     19       2.7422      0.00000
     20       2.7422      0.00000
     21       2.7595      0.00000
     22       2.7883      0.00000
     23       2.8695      0.00000
     24       2.8788      0.00000


--------------------------------------------------------------------------------------------------------


 soft charge-density along one line, spin component           1
         0         1         2         3         4         5         6         7         8         9
 total charge-density along one line
 
 pseudopotential strength for first ion, spin component:           1
 10.406  13.843   0.000   0.025   0.000  -0.000  -0.083  -0.000
 13.843  18.415   0.000   0.033   0.000  -0.000  -0.110  -0.000
  0.000   0.000  -4.548   0.000   0.000   8.906  -0.000  -0.000
  0.025   0.033   0.000  -4.555   0.000  -0.000   8.909  -0.000
  0.000   0.000   0.000   0.000  -4.548  -0.000  -0.000   8.906
 -0.000  -0.000   8.906  -0.000  -0.000 -19.589   0.000   0.000
 -0.083  -0.110  -0.000   8.909  -0.000   0.000 -19.569   0.000
 -0.000  -0.000  -0.000  -0.000   8.906   0.000   0.000 -19.589
 total augmentation occupancy for first ion, spin component:           1
  7.145  -3.244  -0.000   2.107   0.000   0.000   0.379  -0.000
 -3.244   1.891   0.000  -1.620  -0.000   0.000  -0.238  -0.000
 -0.000   0.000   0.850   0.000   0.000   0.071   0.000   0.000
  2.107  -1.620   0.000   2.303   0.000   0.000   0.239   0.000
  0.000  -0.000   0.000   0.000   0.850   0.000   0.000   0.071
  0.000   0.000   0.071   0.000   0.000   0.006   0.000   0.000
  0.379  -0.238   0.000   0.239   0.000   0.000   0.031   0.000
 -0.000  -0.000   0.000   0.000   0.071   0.000   0.000   0.006


------------------------ aborting loop because EDIFF is reached ----------------------------------------


    CHARGE:  cpu time    0.0188: real time    0.0189
    FORLOC:  cpu time    0.0015: real time    0.0015
    FORNL :  cpu time    0.0058: real time    0.0059
    STRESS:  cpu time    0.0730: real time    0.0736
    FORCOR:  cpu time    0.0237: real time    0.0239
    FORHAR:  cpu time    0.0065: real time    0.0065
    MIXING:  cpu time    0.0012: real time    0.0012
    OFIELD:  cpu time    0.0001: real time    0.0001

  FORCE on cell =-STRESS in cart. coord.  units (eV):
  Direction    XX          YY          ZZ          XY          YZ          ZX
  --------------------------------------------------------------------------------------
  Alpha Z     0.43696     0.43696     0.43696
  Ewald     -68.56044   -68.56044   235.95441    -0.00000    -0.00000     0.00000
  Hartree   157.16237   157.16237   266.21968    -0.00000    -0.00000    -0.00000
  E(xc)     -43.96059   -43.96059   -42.85168    -0.00000    -0.00000    -0.00000
  Local    -225.56030  -225.56030  -612.92405    -0.00000    -0.00000    -0.00000
  n-local   -18.96056   -18.96056   -30.31475    -0.00000    -0.00000    -0.00000
  augment     6.17423     6.17423     5.72916    -0.00000    -0.00000     0.00000
  Kinetic   190.93592   190.93593   175.23911     0.00001    -0.00000    -0.00000
  Fock        0.00000     0.00000     0.00000     0.00000     0.00000     0.00000
  -------------------------------------------------------------------------------------
  Total      -2.33241    -2.33241    -2.51116     0.00000     0.00000     0.00000
  in kB      -3.73694    -3.73694    -4.02333     0.00000     0.00000     0.00000
  external pressure =       -3.83 kB  Pullay stress =        0.00 kB


 VOLUME and BASIS-vectors are now :
 -----------------------------------------------------------------------------
  energy-cutoff  :      350.00
  volume of cell :     1000.00
      direct lattice vectors                 reciprocal lattice vectors
    10.000000000  0.000000000  0.000000000     0.100000000  0.000000000  0.000000000
     0.000000000 10.000000000  0.000000000     0.000000000  0.100000000  0.000000000
     0.000000000  0.000000000 10.000000000     0.000000000  0.000000000  0.100000000

  length of vectors
    10.000000000 10.000000000 10.000000000     0.100000000  0.100000000  0.100000000


 FORCES acting on ions
    electron-ion (+dipol)            ewald-force                    non-local-force                 convergence-correction
 -----------------------------------------------------------------------------------------------
   0.134E-12 0.410E-12 0.234E+03   -.539E-16 -.624E-16 -.262E+03   0.000E+00 -.404E-27 0.280E+02   0.109E-14 -.251E-13 0.534E-02
   0.476E-12 0.102E-12 -.203E+03   0.967E-16 0.836E-16 0.262E+03   0.000E+00 -.170E-27 -.596E+02   -.378E-14 0.106E-13 -.541E-03
 -----------------------------------------------------------------------------------------------
   0.609E-12 0.512E-12 0.316E+02   0.428E-16 0.212E-16 0.000E+00   0.000E+00 -.574E-27 -.316E+02   -.269E-14 -.146E-13 0.480E-02
 
 
 POSITION                                       TOTAL-FORCE (eV/Angst)
 -----------------------------------------------------------------------------------
      5.00000      5.00000      4.42811         0.000000      0.000000     -0.009513
      5.00000      5.00000      5.57189        -0.000000      0.000000      0.009513
 -----------------------------------------------------------------------------------
    total drift:                                0.000000      0.000000      0.014140


--------------------------------------------------------------------------------------------------------



  FREE ENERGIE OF THE ION-ELECTRON SYSTEM (eV)
  ---------------------------------------------------
  free  energy   TOTEN  =       -14.81271884 eV

  energy  without entropy=      -14.81271884  energy(sigma->0) =      -14.81271884
 
 d Force = 0.8319119E-03[-0.376E-04, 0.170E-02]  d Energy = 0.8294329E-03 0.248E-05
 d Force =-0.1034179E+01[-0.104E+01,-0.103E+01]  d Ewald  =-0.1034173E+01-0.619E-05


--------------------------------------------------------------------------------------------------------


    POTLOK:  cpu time    0.0269: real time    0.0272


--------------------------------------------------------------------------------------------------------


 stress matrix after NEB project (eV)
     -2.33241      0.00000      0.00000
      0.00000     -2.33241     -0.00000
      0.00000      0.00000     -2.51116
  FORCES: max atom, RMS     0.009513    0.009513
  FORCE total and by dimension    0.013454    0.009513
  Stress total and by dimension    4.145632    2.511164


--------------------------------------------------------------------------------------------------------


  
 reached required accuracy - stopping structural energy minimisation
 writing wavefunctions
     LOOP+:  cpu time    0.6297: real time    0.6819
    4ORBIT:  cpu time    0.0000: real time    0.0000

 total amount of memory used by VASP on root node    40893. kBytes
========================================================================

   base      :      30000. kBytes
   nonl-proj :       2369. kBytes
   fftplans  :       1726. kBytes
   grid      :       6555. kBytes
   one-center:          6. kBytes
   wavefun   :        237. kBytes
 
  
  
 General timing and accounting informations for this job:
 ========================================================
  
                  Total CPU time used (sec):       11.566
                            User time (sec):        9.879
                          System time (sec):        1.687
                         Elapsed time (sec):       12.095
  
                   Maximum memory used (kb):       94632.
                   Average memory used (kb):           0.
  
                          Minor page faults:        33080
                          Major page faults:            7
                 Voluntary context switches:         3274
