<?xml version="1.0" encoding="ISO-8859-1"?>
<modeling>
 <generator>
  <i name="program" type="string">vasp </i>
  <i name="version" type="string">5.4.1  </i>
  <i name="subversion" type="string">05Feb16 (build Apr 25 2018 11:37:45) complex                          parallel </i>
  <i name="platform" type="string">LinuxIFC </i>
  <i name="date" type="string">2023 01 29 </i>
  <i name="time" type="string">13:12:25 </i>
 </generator>
 <incar>
  <i type="string" name="PREC">normal</i>
  <i type="int" name="IBRION">     2</i>
  <i name="EDIFF">      0.00000100</i>
  <i type="int" name="NSW">    20</i>
  <i name="ENCUT">    350.00000000</i>
  <i type="int" name="NBANDS">     8</i>
  <i type="int" name="ISMEAR">     1</i>
  <i name="SIGMA">      0.01000000</i>
  <v type="int" name="KPOINT_BSE">    -1     0     0     0</v>
  <i type="string" name="GGA"> PE</i>
 </incar>
 <kpoints>
  <generation param="Monkhorst-Pack">
   <v type="int" name="divisions">       1        1        1 </v>
   <v name="usershift">      0.00000000       0.00000000       0.00000000 </v>
   <v name="genvec1">      1.00000000       0.00000000       0.00000000 </v>
   <v name="genvec2">      0.00000000       1.00000000       0.00000000 </v>
   <v name="genvec3">      0.00000000       0.00000000       1.00000000 </v>
   <v name="shift">      0.00000000       0.00000000       0.00000000 </v>
  </generation>
  <varray name="kpointlist" >
   <v>       0.00000000       0.00000000       0.00000000 </v>
  </varray>
  <varray name="weights" >
   <v>       1.00000000 </v>
  </varray>
 </kpoints>
 <parameters>
  <separator name="general" >
   <i type="string" name="SYSTEM">unknown system</i>
   <i type="logical" name="LCOMPAT"> F  </i>
  </separator>
  <separator name="electronic" >
   <i type="string" name="PREC">normal</i>
   <i name="ENMAX">    350.00000000</i>
   <i name="ENAUG">    644.87300000</i>
   <i name="EDIFF">      0.00000100</i>
   <i type="int" name="IALGO">    38</i>
   <i type="int" name="IWAVPR">    11</i>
   <i type="int" name="NBANDS">    24</i>
   <i name="NELECT">     10.00000000</i>
   <i type="int" name="TURBO">     0</i>
   <i type="int" name="IRESTART">     0</i>
   <i type="int" name="NREBOOT">     0</i>
   <i type="int" name="NMIN">     0</i>
   <i name="EREF">      0.00000000</i>
   <separator name="electronic smearing" >
    <i type="int" name="ISMEAR">     1</i>
    <i name="SIGMA">      0.01000000</i>
    <i name="KSPACING">      0.50000000</i>
    <i type="logical" name="KGAMMA"> T  </i>
   </separator>
   <separator name="electronic projectors" >
    <i type="logical" name="LREAL"> F  </i>
    <v name="ROPT">      0.00000000      0.00000000</v>
    <i type="int" name="LMAXPAW">  -100</i>
    <i type="int" name="LMAXMIX">     2</i>
    <i type="logical" name="NLSPLINE"> F  </i>
   </separator>
   <separator name="electronic startup" >
    <i type="int" name="ISTART">     1</i>
    <i type="int" name="ICHARG">     0</i>
    <i type="int" name="INIWAV">     1</i>
   </separator>
   <separator name="electronic spin" >
    <i type="int" name="ISPIN">     1</i>
    <i type="logical" name="LNONCOLLINEAR"> F  </i>
    <v name="MAGMOM">      1.00000000      1.00000000</v>
    <i name="NUPDOWN">     -1.00000000</i>
    <i type="logical" name="LSORBIT"> F  </i>
    <v name="SAXIS">      0.00000000      0.00000000      1.00000000</v>
    <i type="logical" name="LSPIRAL"> F  </i>
    <v name="QSPIRAL">      0.00000000      0.00000000      0.00000000</v>
    <i type="logical" name="LZEROZ"> F  </i>
   </separator>
   <separator name="electronic exchange-correlation" >
    <i type="logical" name="LASPH"> F  </i>
    <i type="logical" name="LMETAGGA"> F  </i>
   </separator>
   <separator name="electronic convergence" >
    <i type="int" name="NELM">    60</i>
    <i type="int" name="NELMDL">     0</i>
    <i type="int" name="NELMIN">     2</i>
    <i name="ENINI">    350.00000000</i>
    <separator name="electronic convergence detail" >
     <i type="logical" name="LDIAG"> T  </i>
     <i type="logical" name="LSUBROT"> F  </i>
     <i name="WEIMIN">      0.00100000</i>
     <i name="EBREAK">      0.00000001</i>
     <i name="DEPER">      0.30000000</i>
     <i type="int" name="NRMM">     4</i>
     <i name="TIME">      0.40000000</i>
    </separator>
   </separator>
   <separator name="electronic mixer" >
    <i name="AMIX">      0.40000000</i>
    <i name="BMIX">      1.00000000</i>
    <i name="AMIN">      0.10000000</i>
    <i name="AMIX_MAG">      1.60000000</i>
    <i name="BMIX_MAG">      1.00000000</i>
    <separator name="electronic mixer details" >
     <i type="int" name="IMIX">     4</i>
     <i type="logical" name="MIXFIRST"> F  </i>
     <i type="int" name="MAXMIX">   -45</i>
     <i name="WC">    100.00000000</i>
     <i type="int" name="INIMIX">     1</i>
     <i type="int" name="MIXPRE">     1</i>
     <i type="int" name="MREMOVE">     5</i>
    </separator>
   </separator>
   <separator name="electronic dipolcorrection" >
    <i type="logical" name="LDIPOL"> F  </i>
    <i type="logical" name="LMONO"> F  </i>
    <i type="int" name="IDIPOL">     0</i>
    <i name="EPSILON">      1.00000000</i>
    <v name="DIPOL">   -100.00000000   -100.00000000   -100.00000000</v>
    <i name="EFIELD">      0.00000000</i>
   </separator>
  </separator>
  <separator name="grids" >
   <i type="int" name="NGX">    48</i>
   <i type="int" name="NGY">    48</i>
   <i type="int" name="NGZ">    48</i>
   <i type="int" name="NGXF">    96</i>
   <i type="int" name="NGYF">    96</i>
   <i type="int" name="NGZF">    96</i>
   <i type="logical" name="ADDGRID"> F  </i>
  </separator>
  <separator name="ionic" >
   <i type="int" name="NSW">    20</i>
   <i type="int" name="IBRION">     2</i>
   <i type="int" name="ISIF">     2</i>
   <i name="PSTRESS">      0.00000000</i>
   <i name="EDIFFG">      0.00001000</i>
   <i type="int" name="NFREE">     1</i>
   <i name="POTIM">      0.50000000</i>
   <i name="SMASS">     -3.00000000</i>
   <i name="SCALEE">      1.00000000</i>
  </separator>
  <separator name="ionic md" >
   <i name="TEBEG">      0.00010000</i>
   <i name="TEEND">      0.00010000</i>
   <i type="int" name="NBLOCK">     1</i>
   <i type="int" name="KBLOCK">    20</i>
   <i type="int" name="NPACO">   256</i>
   <i name="APACO">     16.00000000</i>
  </separator>
  <separator name="symmetry" >
   <i type="int" name="ISYM">     2</i>
   <i name="SYMPREC">      0.00001000</i>
  </separator>
  <separator name="dos" >
   <i type="logical" name="LORBIT"> F  </i>
   <v name="RWIGS">     -1.00000000     -1.00000000</v>
   <i type="int" name="NEDOS">   301</i>
   <i name="EMIN">     10.00000000</i>
   <i name="EMAX">    -10.00000000</i>
   <i name="EFERMI">      0.00000000</i>
  </separator>
  <separator name="writing" >
   <i type="int" name="NWRITE">     2</i>
   <i type="logical" name="LWAVE"> T  </i>
   <i type="logical" name="LCHARG"> T  </i>
   <i type="logical" name="LPARD"> F  </i>
   <i type="logical" name="LVTOT"> F  </i>
   <i type="logical" name="LVHAR"> F  </i>
   <i type="logical" name="LELF"> F  </i>
   <i type="logical" name="LOPTICS"> F  </i>
   <v name="STM">      0.00000000      0.00000000      0.00000000      0.00000000      0.00000000      0.00000000      0.00000000</v>
  </separator>
  <separator name="performance" >
   <i type="int" name="NPAR">    24</i>
   <i type="int" name="NSIM">     4</i>
   <i type="int" name="NBLK">    -1</i>
   <i type="logical" name="LPLANE"> T  </i>
   <i type="logical" name="LSCALAPACK"> F  </i>
   <i type="logical" name="LSCAAWARE"> F  </i>
   <i type="logical" name="LSCALU"> F  </i>
   <i type="logical" name="LASYNC"> F  </i>
   <i type="logical" name="LORBITALREAL"> F  </i>
  </separator>
  <separator name="miscellaneous" >
   <i type="int" name="IDIOT">     3</i>
   <i type="logical" name="LMUSIC"> F  </i>
   <v name="POMASS">     12.01100000     16.00000000</v>
   <v name="DARWINR">      0.00000000      0.00000000</v>
   <v name="DARWINV">      1.00000000      1.00000000</v>
   <i type="logical" name="LCORR"> T  </i>
  </separator>
  <i type="logical" name="GGA_COMPAT"> T  </i>
  <i type="logical" name="LBERRY"> F  </i>
  <i type="int" name="ICORELEVEL">     0</i>
  <i type="logical" name="LDAU"> F  </i>
  <i type="int" name="I_CONSTRAINED_M">     0</i>
  <separator name="electronic exchange-correlation" >
   <i type="string" name="GGA">PE</i>
   <i type="int" name="VOSKOWN">     0</i>
   <i type="logical" name="LHFCALC"> F  </i>
   <i type="string" name="PRECFOCK"></i>
   <i type="logical" name="LSYMGRAD"> F  </i>
   <i type="logical" name="LHFONE"> F  </i>
   <i type="logical" name="LRHFCALC"> F  </i>
   <i type="logical" name="LTHOMAS"> F  </i>
   <i type="logical" name="LMODELHF"> F  </i>
   <i name="ENCUT4O">     -1.00000000</i>
   <i type="int" name="EXXOEP">     0</i>
   <i type="int" name="FOURORBIT">     0</i>
   <i name="AEXX">      0.00000000</i>
   <i name="HFALPHA">      0.00000000</i>
   <i name="MCALPHA">      0.00000000</i>
   <i name="ALDAX">      1.00000000</i>
   <i name="AGGAX">      1.00000000</i>
   <i name="ALDAC">      1.00000000</i>
   <i name="AGGAC">      1.00000000</i>
   <i type="int" name="NKREDX">     1</i>
   <i type="int" name="NKREDY">     1</i>
   <i type="int" name="NKREDZ">     1</i>
   <i type="logical" name="SHIFTRED"> F  </i>
   <i type="logical" name="ODDONLY"> F  </i>
   <i type="logical" name="EVENONLY"> F  </i>
   <i type="int" name="LMAXFOCK">     0</i>
   <i type="int" name="NMAXFOCKAE">     0</i>
   <i type="logical" name="LFOCKAEDFT"> F  </i>
   <i name="HFSCREEN">      0.00000000</i>
   <i name="HFSCREENC">      0.00000000</i>
   <i type="int" name="NBANDSGWLOW">     0</i>
  </separator>
  <separator name="vdW DFT" >
   <i type="logical" name="LUSE_VDW"> F  </i>
   <i name="Zab_VDW">     -0.84910000</i>
   <i name="PARAM1">      0.12340000</i>
   <i name="PARAM2">      1.00000000</i>
   <i name="PARAM3">      0.00000000</i>
  </separator>
  <separator name="model GW" >
   <i type="int" name="MODEL_GW">     0</i>
   <i name="MODEL_EPS0">    300.00000000</i>
   <i name="MODEL_ALPHA">      1.00000000</i>
  </separator>
  <separator name="linear response parameters" >
   <i type="logical" name="LEPSILON"> F  </i>
   <i type="logical" name="LRPA"> F  </i>
   <i type="logical" name="LNABLA"> F  </i>
   <i type="logical" name="LVEL"> F  </i>
   <i type="int" name="KINTER">     0</i>
   <i name="CSHIFT">      0.10000000</i>
   <i name="OMEGAMAX">     -1.00000000</i>
   <i name="DEG_THRESHOLD">      0.00200000</i>
  </separator>
  <separator name="orbital magnetization" >
   <i type="logical" name="NUCIND"> F  </i>
   <v name="MAGPOS">      0.00000000      0.00000000      0.00000000</v>
   <i type="logical" name="LNICSALL"> T  </i>
   <i type="logical" name="ORBITALMAG"> F  </i>
   <i type="logical" name="LMAGBLOCH"> F  </i>
   <i type="logical" name="LCHIMAG"> F  </i>
   <i type="logical" name="LGAUGE"> T  </i>
   <i type="int" name="MAGATOM">     0</i>
   <v name="MAGDIPOL">      0.00000000      0.00000000      0.00000000</v>
   <v name="AVECCONST">      0.00000000      0.00000000      0.00000000</v>
  </separator>
  <separator name="response functions" >
   <i type="logical" name="LADDER"> F  </i>
   <i type="logical" name="LFXC"> F  </i>
   <i type="logical" name="LHARTREE"> T  </i>
   <i type="int" name="IBSE">     0</i>
   <v type="int" name="KPOINT">    -1     0     0     0</v>
   <i type="logical" name="LTCTE"> F  </i>
   <i type="logical" name="LTETE"> F  </i>
   <i type="logical" name="LTRIPLET"> F  </i>
   <i type="logical" name="LFXCEPS"> F  </i>
   <i type="logical" name="LFXHEG"> F  </i>
   <i type="int" name="NATURALO">     0</i>
   <i type="logical" name="L2ORDER"> F  </i>
   <i type="logical" name="LUSEW"> F  </i>
   <i name="ENCUTGW">     -2.00000000</i>
   <i name="ENCUTGWSOFT">     -2.00000000</i>
   <i name="ENCUTLF">     -1.00000000</i>
   <i type="int" name="LMAXMP2">    -1</i>
   <i name="SCISSOR">      0.00000000</i>
   <i type="int" name="NOMEGA">     0</i>
   <i type="int" name="NOMEGAR">     0</i>
   <i type="int" name="NBANDSGW">    -1</i>
   <i type="int" name="NBANDSO">    -1</i>
   <i type="int" name="NBANDSV">    -1</i>
   <i type="int" name="NELM">     1</i>
   <i type="int" name="NELMHF">     1</i>
   <i type="int" name="DIM">     3</i>
   <i type="int" name="ANTIRES">     0</i>
   <i name="OMEGAMAX">    -30.00000000</i>
   <i name="OMEGAMIN">    -30.00000000</i>
   <i name="OMEGATL">   -200.00000000</i>
   <i type="int" name="OMEGAGRID">     0</i>
   <i name="CSHIFT">     -0.10000000</i>
   <i type="logical" name="SELFENERGY"> F  </i>
   <i type="logical" name="LSPECTRAL"> F  </i>
   <i type="logical" name="LSPECTRALGW"> F  </i>
   <i type="logical" name="LSINGLES"> F  </i>
   <i type="logical" name="LFERMIGW"> F  </i>
   <i type="logical" name="ODDONLYGW"> F  </i>
   <i type="logical" name="EVENONLYGW"> F  </i>
   <i type="int" name="NKREDLFX">     1</i>
   <i type="int" name="NKREDLFY">     1</i>
   <i type="int" name="NKREDLFZ">     1</i>
   <i type="int" name="MAXMEM">  1800</i>
   <i type="int" name="TELESCOPE">     0</i>
   <i type="int" name="TAUPAR">     1</i>
   <i type="int" name="OMEGAPAR">    -1</i>
   <i name="LAMBDA">      1.00000000</i>
  </separator>
  <separator name="External order field" >
   <i name="OFIELD_KAPPA">      0.00000000</i>
   <v name="OFIELD_K">      0.00000000      0.00000000      0.00000000</v>
   <i name="OFIELD_Q6_NEAR">      0.00000000</i>
   <i name="OFIELD_Q6_FAR">      0.00000000</i>
   <i name="OFIELD_A">      0.00000000</i>
  </separator>
 </parameters>
 <atominfo>
  <atoms>       2 </atoms>
  <types>       2 </types>
  <array name="atoms" >
   <dimension dim="1">ion</dimension>
   <field type="string">element</field>
   <field type="int">atomtype</field>
   <set>
    <rc><c>C </c><c>   1</c></rc>
    <rc><c>O </c><c>   2</c></rc>
   </set>
  </array>
  <array name="atomtypes" >
   <dimension dim="1">type</dimension>
   <field type="int">atomspertype</field>
   <field type="string">element</field>
   <field>mass</field>
   <field>valence</field>
   <field type="string">pseudopotential</field>
   <set>
    <rc><c>   1</c><c>C </c><c>     12.01100000</c><c>      4.00000000</c><c>  PAW_PBE C 08Apr2002                   </c></rc>
    <rc><c>   1</c><c>O </c><c>     16.00000000</c><c>      6.00000000</c><c>  PAW_PBE O 08Apr2002                   </c></rc>
   </set>
  </array>
 </atominfo>
 <structure name="initialpos" >
  <crystal>
   <varray name="basis" >
    <v>      10.00000000       0.00000000       0.00000000 </v>
    <v>       0.00000000      10.00000000       0.00000000 </v>
    <v>       0.00000000       0.00000000      10.00000000 </v>
   </varray>
   <i name="volume">   1000.00000000 </i>
   <varray name="rec_basis" >
    <v>       0.10000000       0.00000000       0.00000000 </v>
    <v>       0.00000000       0.10000000       0.00000000 </v>
    <v>       0.00000000       0.00000000       0.10000000 </v>
   </varray>
  </crystal>
  <varray name="positions" >
   <v>       0.50000000       0.50000000       0.44500000 </v>
   <v>       0.50000000       0.50000000       0.55500000 </v>
  </varray>
 </structure>
 <calculation>
  <scstep>
   <time name="dav">    0.04    0.04</time>
   <time name="total">    0.09    0.10</time>
   <energy>
    <i name="alphaZ">      0.43695755 </i>
    <i name="ewald">    110.78635065 </i>
    <i name="hartreedc">   -582.79165895 </i>
    <i name="XCdc">     40.46270715 </i>
    <i name="pawpsdc">    915.17498250 </i>
    <i name="pawaedc">   -917.59447584 </i>
    <i name="eentropy">      0.00057979 </i>
    <i name="bandstr">   -160.44931281 </i>
    <i name="atom">    579.07123046 </i>
    <i name="e_fr_energy">    -14.90263948 </i>
    <i name="e_wo_entrp">    -14.90321928 </i>
    <i name="e_0_energy">    -14.90283275 </i>
   </energy>
  </scstep>
  <scstep>
   <time name="dav">    0.04    0.04</time>
   <time name="total">    0.09    0.09</time>
   <energy>
    <i name="e_fr_energy">    -14.74180935 </i>
    <i name="e_wo_entrp">    -14.74238914 </i>
    <i name="e_0_energy">    -14.74200261 </i>
   </energy>
  </scstep>
  <scstep>
   <time name="dav">    0.05    0.05</time>
   <time name="total">    0.10    0.10</time>
   <energy>
    <i name="e_fr_energy">    -14.69000088 </i>
    <i name="e_wo_entrp">    -14.69058067 </i>
    <i name="e_0_energy">    -14.69019414 </i>
   </energy>
  </scstep>
  <scstep>
   <time name="dav">    0.04    0.04</time>
   <time name="total">    0.09    0.09</time>
   <energy>
    <i name="e_fr_energy">    -14.68991824 </i>
    <i name="e_wo_entrp">    -14.69049803 </i>
    <i name="e_0_energy">    -14.69011150 </i>
   </energy>
  </scstep>
  <scstep>
   <time name="dav">    0.04    0.04</time>
   <time name="total">    0.09    0.09</time>
   <energy>
    <i name="e_fr_energy">    -14.69000379 </i>
    <i name="e_wo_entrp">    -14.69058358 </i>
    <i name="e_0_energy">    -14.69019706 </i>
   </energy>
  </scstep>
  <scstep>
   <time name="dav">    0.08    0.08</time>
   <time name="total">    0.14    0.14</time>
   <energy>
    <i name="e_fr_energy">    -14.69030677 </i>
    <i name="e_wo_entrp">    -14.69088656 </i>
    <i name="e_0_energy">    -14.69050004 </i>
   </energy>
  </scstep>
  <scstep>
   <time name="dav">    0.04    0.04</time>
   <time name="total">    0.09    0.09</time>
   <energy>
    <i name="e_fr_energy">    -14.69068969 </i>
    <i name="e_wo_entrp">    -14.69126948 </i>
    <i name="e_0_energy">    -14.69088295 </i>
   </energy>
  </scstep>
  <scstep>
   <time name="dav">    0.05    0.05</time>
   <time name="total">    0.10    0.10</time>
   <energy>
    <i name="e_fr_energy">    -14.69117080 </i>
    <i name="e_wo_entrp">    -14.69175059 </i>
    <i name="e_0_energy">    -14.69136407 </i>
   </energy>
  </scstep>
  <scstep>
   <time name="dav">    0.04    0.04</time>
   <time name="total">    0.08    0.09</time>
   <energy>
    <i name="e_fr_energy">    -14.69153565 </i>
    <i name="e_wo_entrp">    -14.69211544 </i>
    <i name="e_0_energy">    -14.69172892 </i>
   </energy>
  </scstep>
  <scstep>
   <time name="dav">    0.04    0.04</time>
   <time name="total">    0.08    0.09</time>
   <energy>
    <i name="e_fr_energy">    -14.69221651 </i>
    <i name="e_wo_entrp">    -14.69221651 </i>
    <i name="e_0_energy">    -14.69221651 </i>
   </energy>
  </scstep>
  <scstep>
   <time name="dav">    0.04    0.04</time>
   <time name="total">    0.09    0.09</time>
   <energy>
    <i name="e_fr_energy">    -14.69175783 </i>
    <i name="e_wo_entrp">    -14.69233762 </i>
    <i name="e_0_energy">    -14.69195109 </i>
   </energy>
  </scstep>
  <scstep>
   <time name="dav">    0.07    0.07</time>
   <time name="total">    0.12    0.12</time>
   <energy>
    <i name="e_fr_energy">    -14.69177526 </i>
    <i name="e_wo_entrp">    -14.69235505 </i>
    <i name="e_0_energy">    -14.69196852 </i>
   </energy>
  </scstep>
  <scstep>
   <time name="dav">    0.04    0.04</time>
   <time name="total">    0.09    0.09</time>
   <energy>
    <i name="e_fr_energy">    -14.69237234 </i>
    <i name="e_wo_entrp">    -14.69237234 </i>
    <i name="e_0_energy">    -14.69237234 </i>
   </energy>
  </scstep>
  <scstep>
   <time name="dav">    0.05    0.05</time>
   <time name="total">    0.10    0.10</time>
   <energy>
    <i name="e_fr_energy">    -14.69237513 </i>
    <i name="e_wo_entrp">    -14.69237513 </i>
    <i name="e_0_energy">    -14.69237513 </i>
   </energy>
  </scstep>
  <scstep>
   <time name="dav">    0.04    0.04</time>
   <time name="total">    0.07    0.07</time>
   <energy>
    <i name="alphaZ">      0.43695755 </i>
    <i name="ewald">    110.78635065 </i>
    <i name="hartreedc">   -590.04681081 </i>
    <i name="XCdc">     40.73216090 </i>
    <i name="pawpsdc">    961.35307259 </i>
    <i name="pawaedc">   -963.76806196 </i>
    <i name="eentropy">      0.00000000 </i>
    <i name="bandstr">   -153.25727529 </i>
    <i name="atom">    579.07123046 </i>
    <i name="e_fr_energy">    -14.69237590 </i>
    <i name="e_wo_entrp">    -14.69237590 </i>
    <i name="e_0_energy">    -14.69237590 </i>
   </energy>
  </scstep>
  <structure>
   <crystal>
    <varray name="basis" >
     <v>      10.00000000       0.00000000       0.00000000 </v>
     <v>       0.00000000      10.00000000       0.00000000 </v>
     <v>       0.00000000       0.00000000      10.00000000 </v>
    </varray>
    <i name="volume">   1000.00000000 </i>
    <varray name="rec_basis" >
     <v>       0.10000000       0.00000000       0.00000000 </v>
     <v>       0.00000000       0.10000000       0.00000000 </v>
     <v>       0.00000000       0.00000000       0.10000000 </v>
    </varray>
   </crystal>
   <varray name="positions" >
    <v>       0.50000000       0.50000000       0.44500000 </v>
    <v>       0.50000000       0.50000000       0.55500000 </v>
   </varray>
  </structure>
  <varray name="forces" >
   <v>      -0.00000000       0.00000000      -5.78665085 </v>
   <v>       0.00000000      -0.00000000       5.78665085 </v>
  </varray>
  <varray name="stress" >
   <v>      -3.71660631      -0.00000000       0.00000000 </v>
   <v>       0.00000000      -3.71660631       0.00000000 </v>
   <v>       0.00000000      -0.00000000       6.17652324 </v>
  </varray>
  <energy>
   <i name="e_fr_energy">    -14.69237590 </i>
   <i name="e_wo_entrp">    -14.69237590 </i>
   <i name="e_0_energy">      0.00000000 </i>
  </energy>
  <time name="totalsc">    2.58    2.66</time>
 </calculation>
 <calculation>
  <scstep>
   <time name="dav">    0.04    0.04</time>
   <time name="total">    0.09    0.09</time>
   <energy>
    <i name="alphaZ">      0.43695755 </i>
    <i name="ewald">      6.18958462 </i>
    <i name="hartreedc">   -515.46648113 </i>
    <i name="XCdc">     38.89330494 </i>
    <i name="pawpsdc">    961.35238407 </i>
    <i name="pawaedc">   -963.76737680 </i>
    <i name="eentropy">      0.00000000 </i>
    <i name="bandstr">   -117.04388718 </i>
    <i name="atom">    579.07123046 </i>
    <i name="e_fr_energy">    -10.33428347 </i>
    <i name="e_wo_entrp">    -10.33428347 </i>
    <i name="e_0_energy">    -10.33428347 </i>
   </energy>
  </scstep>
  <scstep>
   <time name="dav">    0.06    0.06</time>
   <time name="total">    0.11    0.11</time>
   <energy>
    <i name="e_fr_energy">    -10.41417520 </i>
    <i name="e_wo_entrp">    -10.41417520 </i>
    <i name="e_0_energy">    -10.41417520 </i>
   </energy>
  </scstep>
  <scstep>
   <time name="dav">    0.04    0.04</time>
   <time name="total">    0.09    0.09</time>
   <energy>
    <i name="e_fr_energy">     -9.67761310 </i>
    <i name="e_wo_entrp">     -9.67761310 </i>
    <i name="e_0_energy">     -9.67761310 </i>
   </energy>
  </scstep>
  <scstep>
   <time name="dav">    0.06    0.06</time>
   <time name="total">    0.10    0.10</time>
   <energy>
    <i name="e_fr_energy">     -9.49961070 </i>
    <i name="e_wo_entrp">     -9.50077029 </i>
    <i name="e_0_energy">     -9.49999723 </i>
   </energy>
  </scstep>
  <scstep>
   <time name="dav">    0.06    0.06</time>
   <time name="total">    0.12    0.15</time>
   <energy>
    <i name="e_fr_energy">     -9.51459794 </i>
    <i name="e_wo_entrp">     -9.51575752 </i>
    <i name="e_0_energy">     -9.51498446 </i>
   </energy>
  </scstep>
  <scstep>
   <time name="dav">    0.07    0.07</time>
   <time name="total">    0.12    0.12</time>
   <energy>
    <i name="e_fr_energy">     -9.51785413 </i>
    <i name="e_wo_entrp">     -9.51901371 </i>
    <i name="e_0_energy">     -9.51824066 </i>
   </energy>
  </scstep>
  <scstep>
   <time name="dav">    0.04    0.04</time>
   <time name="total">    0.08    0.08</time>
   <energy>
    <i name="e_fr_energy">     -9.51998891 </i>
    <i name="e_wo_entrp">     -9.51998891 </i>
    <i name="e_0_energy">     -9.51998891 </i>
   </energy>
  </scstep>
  <scstep>
   <time name="dav">    0.05    0.05</time>
   <time name="total">    0.10    0.10</time>
   <energy>
    <i name="e_fr_energy">     -9.52204442 </i>
    <i name="e_wo_entrp">     -9.52320400 </i>
    <i name="e_0_energy">     -9.52243094 </i>
   </energy>
  </scstep>
  <scstep>
   <time name="dav">    0.07    0.07</time>
   <time name="total">    0.11    0.12</time>
   <energy>
    <i name="e_fr_energy">     -9.52412405 </i>
    <i name="e_wo_entrp">     -9.52412405 </i>
    <i name="e_0_energy">     -9.52412405 </i>
   </energy>
  </scstep>
  <scstep>
   <time name="dav">    0.05    0.05</time>
   <time name="total">    0.10    0.10</time>
   <energy>
    <i name="e_fr_energy">     -9.52501574 </i>
    <i name="e_wo_entrp">     -9.52501574 </i>
    <i name="e_0_energy">     -9.52501574 </i>
   </energy>
  </scstep>
  <scstep>
   <time name="dav">    0.04    0.04</time>
   <time name="total">    0.09    0.09</time>
   <energy>
    <i name="e_fr_energy">     -9.52416557 </i>
    <i name="e_wo_entrp">     -9.52532515 </i>
    <i name="e_0_energy">     -9.52455210 </i>
   </energy>
  </scstep>
  <scstep>
   <time name="dav">    0.07    0.07</time>
   <time name="total">    0.12    0.12</time>
   <energy>
    <i name="e_fr_energy">     -9.52430695 </i>
    <i name="e_wo_entrp">     -9.52546653 </i>
    <i name="e_0_energy">     -9.52469348 </i>
   </energy>
  </scstep>
  <scstep>
   <time name="dav">    0.05    0.05</time>
   <time name="total">    0.10    0.10</time>
   <energy>
    <i name="e_fr_energy">     -9.52434549 </i>
    <i name="e_wo_entrp">     -9.52550508 </i>
    <i name="e_0_energy">     -9.52473202 </i>
   </energy>
  </scstep>
  <scstep>
   <time name="dav">    0.05    0.05</time>
   <time name="total">    0.10    0.10</time>
   <energy>
    <i name="e_fr_energy">     -9.52435361 </i>
    <i name="e_wo_entrp">     -9.52551319 </i>
    <i name="e_0_energy">     -9.52474014 </i>
   </energy>
  </scstep>
  <scstep>
   <time name="dav">    0.07    0.07</time>
   <time name="total">    0.12    0.12</time>
   <energy>
    <i name="e_fr_energy">     -9.52552008 </i>
    <i name="e_wo_entrp">     -9.52552008 </i>
    <i name="e_0_energy">     -9.52552008 </i>
   </energy>
  </scstep>
  <scstep>
   <time name="dav">    0.07    0.07</time>
   <time name="total">    0.10    0.10</time>
   <energy>
    <i name="alphaZ">      0.43695755 </i>
    <i name="ewald">      6.18958462 </i>
    <i name="hartreedc">   -501.29143172 </i>
    <i name="XCdc">     37.83719179 </i>
    <i name="pawpsdc">    523.68752159 </i>
    <i name="pawaedc">   -525.76090586 </i>
    <i name="eentropy">      0.00000000 </i>
    <i name="bandstr">   -129.69566939 </i>
    <i name="atom">    579.07123046 </i>
    <i name="e_fr_energy">     -9.52552095 </i>
    <i name="e_wo_entrp">     -9.52552095 </i>
    <i name="e_0_energy">     -9.52552095 </i>
   </energy>
  </scstep>
  <structure>
   <crystal>
    <varray name="basis" >
     <v>      10.00000000       0.00000000       0.00000000 </v>
     <v>       0.00000000      10.00000000       0.00000000 </v>
     <v>       0.00000000       0.00000000      10.00000000 </v>
    </varray>
    <i name="volume">   1000.00000000 </i>
    <varray name="rec_basis" >
     <v>       0.10000000       0.00000000       0.00000000 </v>
     <v>       0.00000000       0.10000000       0.00000000 </v>
     <v>       0.00000000       0.00000000       0.10000000 </v>
    </varray>
   </crystal>
   <varray name="positions" >
    <v>       0.50000000       0.50000000       0.41708366 </v>
    <v>       0.50000000       0.50000000       0.58291634 </v>
   </varray>
  </structure>
  <varray name="forces" >
   <v>       0.00000000       0.00000000      11.53239452 </v>
   <v>      -0.00000000       0.00000000     -11.53239452 </v>
  </varray>
  <varray name="stress" >
   <v>      -3.82825269       0.00000000       0.00000000 </v>
   <v>       0.00000000      -3.82825269      -0.00000000 </v>
   <v>       0.00000000       0.00000000     -34.51192924 </v>
  </varray>
  <energy>
   <i name="e_fr_energy">     -9.52552095 </i>
   <i name="e_wo_entrp">     -9.52552095 </i>
   <i name="e_0_energy">      0.00000000 </i>
  </energy>
  <time name="totalsc">    1.83    1.89</time>
 </calculation>
 <calculation>
  <scstep>
   <time name="dav">    0.04    0.04</time>
   <time name="total">    0.09    0.09</time>
   <energy>
    <i name="alphaZ">      0.43695755 </i>
    <i name="ewald">     65.56691912 </i>
    <i name="hartreedc">   -545.73052045 </i>
    <i name="XCdc">     38.83208713 </i>
    <i name="pawpsdc">    523.68871744 </i>
    <i name="pawaedc">   -525.76210357 </i>
    <i name="eentropy">      0.00057979 </i>
    <i name="bandstr">   -150.09401582 </i>
    <i name="atom">    579.07123046 </i>
    <i name="e_fr_energy">    -13.99014835 </i>
    <i name="e_wo_entrp">    -13.99072814 </i>
    <i name="e_0_energy">    -13.99034161 </i>
   </energy>
  </scstep>
  <scstep>
   <time name="dav">    0.04    0.04</time>
   <time name="total">    0.08    0.08</time>
   <energy>
    <i name="e_fr_energy">    -14.11902413 </i>
    <i name="e_wo_entrp">    -14.11902413 </i>
    <i name="e_0_energy">    -14.11902413 </i>
   </energy>
  </scstep>
  <scstep>
   <time name="dav">    0.07    0.07</time>
   <time name="total">    0.12    0.12</time>
   <energy>
    <i name="e_fr_energy">    -14.01148798 </i>
    <i name="e_wo_entrp">    -14.01206777 </i>
    <i name="e_0_energy">    -14.01168124 </i>
   </energy>
  </scstep>
  <scstep>
   <time name="dav">    0.05    0.05</time>
   <time name="total">    0.10    0.10</time>
   <energy>
    <i name="e_fr_energy">    -13.97808035 </i>
    <i name="e_wo_entrp">    -13.97808035 </i>
    <i name="e_0_energy">    -13.97808035 </i>
   </energy>
  </scstep>
  <scstep>
   <time name="dav">    0.04    0.04</time>
   <time name="total">    0.08    0.09</time>
   <energy>
    <i name="e_fr_energy">    -13.97691796 </i>
    <i name="e_wo_entrp">    -13.97749775 </i>
    <i name="e_0_energy">    -13.97711122 </i>
   </energy>
  </scstep>
  <scstep>
   <time name="dav">    0.05    0.05</time>
   <time name="total">    0.10    0.10</time>
   <energy>
    <i name="e_fr_energy">    -13.97929667 </i>
    <i name="e_wo_entrp">    -13.97987646 </i>
    <i name="e_0_energy">    -13.97948993 </i>
   </energy>
  </scstep>
  <scstep>
   <time name="dav">    0.07    0.07</time>
   <time name="total">    0.12    0.12</time>
   <energy>
    <i name="e_fr_energy">    -13.98185152 </i>
    <i name="e_wo_entrp">    -13.98185152 </i>
    <i name="e_0_energy">    -13.98185152 </i>
   </energy>
  </scstep>
  <scstep>
   <time name="dav">    0.04    0.04</time>
   <time name="total">    0.08    0.09</time>
   <energy>
    <i name="e_fr_energy">    -13.98455099 </i>
    <i name="e_wo_entrp">    -13.98455099 </i>
    <i name="e_0_energy">    -13.98455099 </i>
   </energy>
  </scstep>
  <scstep>
   <time name="dav">    0.04    0.04</time>
   <time name="total">    0.08    0.09</time>
   <energy>
    <i name="e_fr_energy">    -13.98511942 </i>
    <i name="e_wo_entrp">    -13.98569921 </i>
    <i name="e_0_energy">    -13.98531268 </i>
   </energy>
  </scstep>
  <scstep>
   <time name="dav">    0.04    0.04</time>
   <time name="total">    0.08    0.09</time>
   <energy>
    <i name="e_fr_energy">    -13.98544839 </i>
    <i name="e_wo_entrp">    -13.98602819 </i>
    <i name="e_0_energy">    -13.98564166 </i>
   </energy>
  </scstep>
  <scstep>
   <time name="dav">    0.07    0.07</time>
   <time name="total">    0.12    0.12</time>
   <energy>
    <i name="e_fr_energy">    -13.98622582 </i>
    <i name="e_wo_entrp">    -13.98622582 </i>
    <i name="e_0_energy">    -13.98622582 </i>
   </energy>
  </scstep>
  <scstep>
   <time name="dav">    0.04    0.04</time>
   <time name="total">    0.08    0.09</time>
   <energy>
    <i name="e_fr_energy">    -13.98628064 </i>
    <i name="e_wo_entrp">    -13.98628064 </i>
    <i name="e_0_energy">    -13.98628064 </i>
   </energy>
  </scstep>
  <scstep>
   <time name="dav">    0.05    0.05</time>
   <time name="total">    0.10    0.10</time>
   <energy>
    <i name="e_fr_energy">    -13.98571342 </i>
    <i name="e_wo_entrp">    -13.98629321 </i>
    <i name="e_0_energy">    -13.98590668 </i>
   </energy>
  </scstep>
  <scstep>
   <time name="dav">    0.08    0.08</time>
   <time name="total">    0.13    0.13</time>
   <energy>
    <i name="e_fr_energy">    -13.98629990 </i>
    <i name="e_wo_entrp">    -13.98629990 </i>
    <i name="e_0_energy">    -13.98629990 </i>
   </energy>
  </scstep>
  <scstep>
   <time name="dav">    0.04    0.04</time>
   <time name="total">    0.07    0.07</time>
   <energy>
    <i name="alphaZ">      0.43695755 </i>
    <i name="ewald">     65.56691912 </i>
    <i name="hartreedc">   -553.25993527 </i>
    <i name="XCdc">     39.41488196 </i>
    <i name="pawpsdc">    690.14303387 </i>
    <i name="pawaedc">   -692.34997993 </i>
    <i name="eentropy">      0.00000000 </i>
    <i name="bandstr">   -143.00940839 </i>
    <i name="atom">    579.07123046 </i>
    <i name="e_fr_energy">    -13.98630061 </i>
    <i name="e_wo_entrp">    -13.98630061 </i>
    <i name="e_0_energy">    -13.98630061 </i>
   </energy>
  </scstep>
  <structure>
   <crystal>
    <varray name="basis" >
     <v>      10.00000000       0.00000000       0.00000000 </v>
     <v>       0.00000000      10.00000000       0.00000000 </v>
     <v>       0.00000000       0.00000000      10.00000000 </v>
    </varray>
    <i name="volume">   1000.00000000 </i>
    <varray name="rec_basis" >
     <v>       0.10000000       0.00000000       0.00000000 </v>
     <v>       0.00000000       0.10000000       0.00000000 </v>
     <v>       0.00000000       0.00000000       0.10000000 </v>
    </varray>
   </crystal>
   <varray name="positions" >
    <v>       0.50000000       0.50000000       0.43567257 </v>
    <v>       0.50000000       0.50000000       0.56432743 </v>
   </varray>
  </structure>
  <varray name="forces" >
   <v>      -0.00000000       0.00000000       9.78527838 </v>
   <v>       0.00000000      -0.00000000      -9.78527838 </v>
  </varray>
  <varray name="stress" >
   <v>      -3.77796039       0.00000000       0.00000000 </v>
   <v>       0.00000000      -3.77796039      -0.00000000 </v>
   <v>       0.00000000       0.00000000     -23.71775274 </v>
  </varray>
  <energy>
   <i name="e_fr_energy">    -13.98630061 </i>
   <i name="e_wo_entrp">    -13.98630061 </i>
   <i name="e_0_energy">      0.00000000 </i>
  </energy>
  <time name="totalsc">    1.61    1.64</time>
 </calculation>
 <calculation>
  <scstep>
   <time name="dav">    0.04    0.04</time>
   <time name="total">    0.09    0.09</time>
   <energy>
    <i name="alphaZ">      0.43695755 </i>
    <i name="ewald">     92.27870901 </i>
    <i name="hartreedc">   -570.08790256 </i>
    <i name="XCdc">     39.87351413 </i>
    <i name="pawpsdc">    690.14522980 </i>
    <i name="pawaedc">   -692.35217489 </i>
    <i name="eentropy">      0.00057979 </i>
    <i name="bandstr">   -154.17723365 </i>
    <i name="atom">    579.07123046 </i>
    <i name="e_fr_energy">    -14.81109036 </i>
    <i name="e_wo_entrp">    -14.81167015 </i>
    <i name="e_0_energy">    -14.81128362 </i>
   </energy>
  </scstep>
  <scstep>
   <time name="dav">    0.04    0.04</time>
   <time name="total">    0.08    0.09</time>
   <energy>
    <i name="e_fr_energy">    -14.79556457 </i>
    <i name="e_wo_entrp">    -14.79556457 </i>
    <i name="e_0_energy">    -14.79556457 </i>
   </energy>
  </scstep>
  <scstep>
   <time name="dav">    0.04    0.04</time>
   <time name="total">    0.08    0.09</time>
   <energy>
    <i name="e_fr_energy">    -14.77703981 </i>
    <i name="e_wo_entrp">    -14.77761960 </i>
    <i name="e_0_energy">    -14.77723307 </i>
   </energy>
  </scstep>
  <scstep>
   <time name="dav">    0.05    0.05</time>
   <time name="total">    0.10    0.10</time>
   <energy>
    <i name="e_fr_energy">    -14.77504377 </i>
    <i name="e_wo_entrp">    -14.77562356 </i>
    <i name="e_0_energy">    -14.77523703 </i>
   </energy>
  </scstep>
  <scstep>
   <time name="dav">    0.04    0.04</time>
   <time name="total">    0.08    0.09</time>
   <energy>
    <i name="e_fr_energy">    -14.77559698 </i>
    <i name="e_wo_entrp">    -14.77617677 </i>
    <i name="e_0_energy">    -14.77579024 </i>
   </energy>
  </scstep>
  <scstep>
   <time name="dav">    0.04    0.04</time>
   <time name="total">    0.09    0.09</time>
   <energy>
    <i name="e_fr_energy">    -14.77674424 </i>
    <i name="e_wo_entrp">    -14.77674424 </i>
    <i name="e_0_energy">    -14.77674424 </i>
   </energy>
  </scstep>
  <scstep>
   <time name="dav">    0.07    0.07</time>
   <time name="total">    0.12    0.12</time>
   <energy>
    <i name="e_fr_energy">    -14.77739438 </i>
    <i name="e_wo_entrp">    -14.77739438 </i>
    <i name="e_0_energy">    -14.77739438 </i>
   </energy>
  </scstep>
  <scstep>
   <time name="dav">    0.04    0.04</time>
   <time name="total">    0.08    0.09</time>
   <energy>
    <i name="e_fr_energy">    -14.77786966 </i>
    <i name="e_wo_entrp">    -14.77786966 </i>
    <i name="e_0_energy">    -14.77786966 </i>
   </energy>
  </scstep>
  <scstep>
   <time name="dav">    0.04    0.04</time>
   <time name="total">    0.08    0.09</time>
   <energy>
    <i name="e_fr_energy">    -14.77762179 </i>
    <i name="e_wo_entrp">    -14.77820158 </i>
    <i name="e_0_energy">    -14.77781505 </i>
   </energy>
  </scstep>
  <scstep>
   <time name="dav">    0.04    0.04</time>
   <time name="total">    0.08    0.09</time>
   <energy>
    <i name="e_fr_energy">    -14.77830242 </i>
    <i name="e_wo_entrp">    -14.77830242 </i>
    <i name="e_0_energy">    -14.77830242 </i>
   </energy>
  </scstep>
  <scstep>
   <time name="dav">    0.07    0.07</time>
   <time name="total">    0.12    0.12</time>
   <energy>
    <i name="e_fr_energy">    -14.77836066 </i>
    <i name="e_wo_entrp">    -14.77836066 </i>
    <i name="e_0_energy">    -14.77836066 </i>
   </energy>
  </scstep>
  <scstep>
   <time name="dav">    0.04    0.04</time>
   <time name="total">    0.08    0.09</time>
   <energy>
    <i name="e_fr_energy">    -14.77837116 </i>
    <i name="e_wo_entrp">    -14.77837116 </i>
    <i name="e_0_energy">    -14.77837116 </i>
   </energy>
  </scstep>
  <scstep>
   <time name="dav">    0.04    0.04</time>
   <time name="total">    0.09    0.09</time>
   <energy>
    <i name="e_fr_energy">    -14.77779690 </i>
    <i name="e_wo_entrp">    -14.77837669 </i>
    <i name="e_0_energy">    -14.77799016 </i>
   </energy>
  </scstep>
  <scstep>
   <time name="dav">    0.07    0.07</time>
   <time name="total">    0.12    0.12</time>
   <energy>
    <i name="e_fr_energy">    -14.77779975 </i>
    <i name="e_wo_entrp">    -14.77837954 </i>
    <i name="e_0_energy">    -14.77799301 </i>
   </energy>
  </scstep>
  <scstep>
   <time name="dav">    0.07    0.07</time>
   <time name="total">    0.10    0.10</time>
   <energy>
    <i name="alphaZ">      0.43695755 </i>
    <i name="ewald">     92.27870901 </i>
    <i name="hartreedc">   -575.27251867 </i>
    <i name="XCdc">     40.18819319 </i>
    <i name="pawpsdc">    835.00090200 </i>
    <i name="pawaedc">   -837.31363060 </i>
    <i name="eentropy">      0.00057979 </i>
    <i name="bandstr">   -149.16822278 </i>
    <i name="atom">    579.07123046 </i>
    <i name="e_fr_energy">    -14.77780005 </i>
    <i name="e_wo_entrp">    -14.77837984 </i>
    <i name="e_0_energy">    -14.77799331 </i>
   </energy>
  </scstep>
  <structure>
   <crystal>
    <varray name="basis" >
     <v>      10.00000000       0.00000000       0.00000000 </v>
     <v>       0.00000000      10.00000000       0.00000000 </v>
     <v>       0.00000000       0.00000000      10.00000000 </v>
    </varray>
    <i name="volume">   1000.00000000 </i>
    <varray name="rec_basis" >
     <v>       0.10000000       0.00000000       0.00000000 </v>
     <v>       0.00000000       0.10000000       0.00000000 </v>
     <v>       0.00000000       0.00000000       0.10000000 </v>
    </varray>
   </crystal>
   <varray name="positions" >
    <v>       0.50000000       0.50000000       0.44153386 </v>
    <v>       0.50000000       0.50000000       0.55846614 </v>
   </varray>
  </structure>
  <varray name="forces" >
   <v>      -0.00000000       0.00000000       2.61649477 </v>
   <v>       0.00000000      -0.00000000      -2.61649477 </v>
  </varray>
  <varray name="stress" >
   <v>      -3.74046099       0.00000000       0.00000000 </v>
   <v>       0.00000000      -3.74046099       0.00000000 </v>
   <v>       0.00000000       0.00000000      -8.90250724 </v>
  </varray>
  <energy>
   <i name="e_fr_energy">    -14.77780005 </i>
   <i name="e_wo_entrp">    -14.77799331 </i>
   <i name="e_0_energy">      0.00057979 </i>
  </energy>
  <time name="totalsc">    1.57    1.61</time>
 </calculation>
 <calculation>
  <scstep>
   <time name="dav">    0.04    0.04</time>
   <time name="total">    0.09    0.09</time>
   <energy>
    <i name="alphaZ">      0.43695755 </i>
    <i name="ewald">     97.79939642 </i>
    <i name="hartreedc">   -578.55696191 </i>
    <i name="XCdc">     40.28287885 </i>
    <i name="pawpsdc">    835.00234942 </i>
    <i name="pawaedc">   -837.31507574 </i>
    <i name="eentropy">      0.00000000 </i>
    <i name="bandstr">   -151.53489155 </i>
    <i name="atom">    579.07123046 </i>
    <i name="e_fr_energy">    -14.81411649 </i>
    <i name="e_wo_entrp">    -14.81411649 </i>
    <i name="e_0_energy">    -14.81411649 </i>
   </energy>
  </scstep>
  <scstep>
   <time name="dav">    0.04    0.04</time>
   <time name="total">    0.09    0.09</time>
   <energy>
    <i name="e_fr_energy">    -14.81245139 </i>
    <i name="e_wo_entrp">    -14.81245139 </i>
    <i name="e_0_energy">    -14.81245139 </i>
   </energy>
  </scstep>
  <scstep>
   <time name="dav">    0.07    0.07</time>
   <time name="total">    0.12    0.12</time>
   <energy>
    <i name="e_fr_energy">    -14.81114448 </i>
    <i name="e_wo_entrp">    -14.81172427 </i>
    <i name="e_0_energy">    -14.81133774 </i>
   </energy>
  </scstep>
  <scstep>
   <time name="dav">    0.04    0.04</time>
   <time name="total">    0.09    0.09</time>
   <energy>
    <i name="e_fr_energy">    -14.81170691 </i>
    <i name="e_wo_entrp">    -14.81170691 </i>
    <i name="e_0_energy">    -14.81170691 </i>
   </energy>
  </scstep>
  <scstep>
   <time name="dav">    0.04    0.05</time>
   <time name="total">    0.09    0.14</time>
   <energy>
    <i name="e_fr_energy">    -14.81114485 </i>
    <i name="e_wo_entrp">    -14.81172465 </i>
    <i name="e_0_energy">    -14.81133812 </i>
   </energy>
  </scstep>
  <scstep>
   <time name="dav">    0.04    0.04</time>
   <time name="total">    0.09    0.09</time>
   <energy>
    <i name="e_fr_energy">    -14.81174935 </i>
    <i name="e_wo_entrp">    -14.81174935 </i>
    <i name="e_0_energy">    -14.81174935 </i>
   </energy>
  </scstep>
  <scstep>
   <time name="dav">    0.04    0.04</time>
   <time name="total">    0.08    0.09</time>
   <energy>
    <i name="e_fr_energy">    -14.81178199 </i>
    <i name="e_wo_entrp">    -14.81178199 </i>
    <i name="e_0_energy">    -14.81178199 </i>
   </energy>
  </scstep>
  <scstep>
   <time name="dav">    0.04    0.04</time>
   <time name="total">    0.08    0.09</time>
   <energy>
    <i name="e_fr_energy">    -14.81183308 </i>
    <i name="e_wo_entrp">    -14.81183308 </i>
    <i name="e_0_energy">    -14.81183308 </i>
   </energy>
  </scstep>
  <scstep>
   <time name="dav">    0.04    0.04</time>
   <time name="total">    0.08    0.09</time>
   <energy>
    <i name="e_fr_energy">    -14.81186496 </i>
    <i name="e_wo_entrp">    -14.81186496 </i>
    <i name="e_0_energy">    -14.81186496 </i>
   </energy>
  </scstep>
  <scstep>
   <time name="dav">    0.04    0.04</time>
   <time name="total">    0.08    0.09</time>
   <energy>
    <i name="e_fr_energy">    -14.81187598 </i>
    <i name="e_wo_entrp">    -14.81187598 </i>
    <i name="e_0_energy">    -14.81187598 </i>
   </energy>
  </scstep>
  <scstep>
   <time name="dav">    0.05    0.05</time>
   <time name="total">    0.10    0.10</time>
   <energy>
    <i name="e_fr_energy">    -14.81188591 </i>
    <i name="e_wo_entrp">    -14.81188591 </i>
    <i name="e_0_energy">    -14.81188591 </i>
   </energy>
  </scstep>
  <scstep>
   <time name="dav">    0.07    0.07</time>
   <time name="total">    0.12    0.12</time>
   <energy>
    <i name="e_fr_energy">    -14.81188820 </i>
    <i name="e_wo_entrp">    -14.81188820 </i>
    <i name="e_0_energy">    -14.81188820 </i>
   </energy>
  </scstep>
  <scstep>
   <time name="dav">    0.04    0.04</time>
   <time name="total">    0.09    0.09</time>
   <energy>
    <i name="e_fr_energy">    -14.81188926 </i>
    <i name="e_wo_entrp">    -14.81188926 </i>
    <i name="e_0_energy">    -14.81188926 </i>
   </energy>
  </scstep>
  <scstep>
   <time name="dav">    0.07    0.07</time>
   <time name="total">    0.10    0.10</time>
   <energy>
    <i name="alphaZ">      0.43695755 </i>
    <i name="ewald">     97.79939642 </i>
    <i name="hartreedc">   -579.72278715 </i>
    <i name="XCdc">     40.35012518 </i>
    <i name="pawpsdc">    871.17174642 </i>
    <i name="pawaedc">   -873.51211960 </i>
    <i name="eentropy">      0.00000000 </i>
    <i name="bandstr">   -150.40643869 </i>
    <i name="atom">    579.07123046 </i>
    <i name="e_fr_energy">    -14.81188941 </i>
    <i name="e_wo_entrp">    -14.81188941 </i>
    <i name="e_0_energy">    -14.81188941 </i>
   </energy>
  </scstep>
  <structure>
   <crystal>
    <varray name="basis" >
     <v>      10.00000000       0.00000000       0.00000000 </v>
     <v>       0.00000000      10.00000000       0.00000000 </v>
     <v>       0.00000000       0.00000000      10.00000000 </v>
    </varray>
    <i name="volume">   1000.00000000 </i>
    <varray name="rec_basis" >
     <v>       0.10000000       0.00000000       0.00000000 </v>
     <v>       0.00000000       0.10000000       0.00000000 </v>
     <v>       0.00000000       0.00000000       0.10000000 </v>
    </varray>
   </crystal>
   <varray name="positions" >
    <v>       0.50000000       0.50000000       0.44261311 </v>
    <v>       0.50000000       0.50000000       0.55738689 </v>
   </varray>
  </structure>
  <varray name="forces" >
   <v>       0.00000000       0.00000000       0.43028077 </v>
   <v>       0.00000000      -0.00000000      -0.43028077 </v>
  </varray>
  <varray name="stress" >
   <v>      -3.73134154       0.00000000       0.00000000 </v>
   <v>       0.00000000      -3.73134154       0.00000000 </v>
   <v>       0.00000000       0.00000000      -4.82247956 </v>
  </varray>
  <energy>
   <i name="e_fr_energy">    -14.81188941 </i>
   <i name="e_wo_entrp">    -14.81188941 </i>
   <i name="e_0_energy">      0.00000000 </i>
  </energy>
  <time name="totalsc">    1.47    1.54</time>
 </calculation>
 <calculation>
  <scstep>
   <time name="dav">    0.04    0.04</time>
   <time name="total">    0.08    0.09</time>
   <energy>
    <i name="alphaZ">      0.43695755 </i>
    <i name="ewald">     98.83356964 </i>
    <i name="hartreedc">   -580.33115653 </i>
    <i name="XCdc">     40.36784225 </i>
    <i name="pawpsdc">    871.17202837 </i>
    <i name="pawaedc">   -873.51240289 </i>
    <i name="eentropy">      0.00000000 </i>
    <i name="bandstr">   -150.85087718 </i>
    <i name="atom">    579.07123046 </i>
    <i name="e_fr_energy">    -14.81280834 </i>
    <i name="e_wo_entrp">    -14.81280834 </i>
    <i name="e_0_energy">    -14.81280834 </i>
   </energy>
  </scstep>
  <scstep>
   <time name="dav">    0.04    0.04</time>
   <time name="total">    0.09    0.09</time>
   <energy>
    <i name="e_fr_energy">    -14.81274600 </i>
    <i name="e_wo_entrp">    -14.81274600 </i>
    <i name="e_0_energy">    -14.81274600 </i>
   </energy>
  </scstep>
  <scstep>
   <time name="dav">    0.07    0.07</time>
   <time name="total">    0.12    0.12</time>
   <energy>
    <i name="e_fr_energy">    -14.81271983 </i>
    <i name="e_wo_entrp">    -14.81271983 </i>
    <i name="e_0_energy">    -14.81271983 </i>
   </energy>
  </scstep>
  <scstep>
   <time name="dav">    0.04    0.04</time>
   <time name="total">    0.09    0.09</time>
   <energy>
    <i name="e_fr_energy">    -14.81271873 </i>
    <i name="e_wo_entrp">    -14.81271873 </i>
    <i name="e_0_energy">    -14.81271873 </i>
   </energy>
  </scstep>
  <scstep>
   <time name="dav">    0.04    0.04</time>
   <time name="total">    0.07    0.07</time>
   <energy>
    <i name="alphaZ">      0.43695755 </i>
    <i name="ewald">     98.83356964 </i>
    <i name="hartreedc">   -580.55592146 </i>
    <i name="XCdc">     40.38069985 </i>
    <i name="pawpsdc">    877.86653559 </i>
    <i name="pawaedc">   -880.21243390 </i>
    <i name="eentropy">      0.00000000 </i>
    <i name="bandstr">   -150.63335658 </i>
    <i name="atom">    579.07123046 </i>
    <i name="e_fr_energy">    -14.81271884 </i>
    <i name="e_wo_entrp">    -14.81271884 </i>
    <i name="e_0_energy">    -14.81271884 </i>
   </energy>
  </scstep>
  <structure>
   <crystal>
    <varray name="basis" >
     <v>      10.00000000       0.00000000       0.00000000 </v>
     <v>       0.00000000      10.00000000       0.00000000 </v>
     <v>       0.00000000       0.00000000      10.00000000 </v>
    </varray>
    <i name="volume">   1000.00000000 </i>
    <varray name="rec_basis" >
     <v>       0.10000000       0.00000000       0.00000000 </v>
     <v>       0.00000000       0.10000000       0.00000000 </v>
     <v>       0.00000000       0.00000000       0.10000000 </v>
    </varray>
   </crystal>
   <varray name="positions" >
    <v>       0.50000000       0.50000000       0.44281082 </v>
    <v>       0.50000000       0.50000000       0.55718918 </v>
   </varray>
  </structure>
  <varray name="forces" >
   <v>       0.00000000       0.00000000      -0.00951325 </v>
   <v>      -0.00000000       0.00000000       0.00951325 </v>
  </varray>
  <varray name="stress" >
   <v>      -3.73694241       0.00000000       0.00000000 </v>
   <v>       0.00000000      -3.73694241      -0.00000000 </v>
   <v>       0.00000000       0.00000000      -4.02332947 </v>
  </varray>
  <energy>
   <i name="e_fr_energy">    -14.81271884 </i>
   <i name="e_wo_entrp">    -14.81271884 </i>
   <i name="e_0_energy">      0.00000000 </i>
  </energy>
  <time name="totalsc">    0.63    0.68</time>
  <eigenvalues>
   <array>
    <dimension dim="1">band</dimension>
    <dimension dim="2">kpoint</dimension>
    <dimension dim="3">spin</dimension>
    <field>eigene</field>
    <field>occ</field>
    <set>
     <set comment="spin 1">
      <set comment="kpoint 1">
       <r>  -29.1785    1.0000 </r>
       <r>  -13.9507    1.0000 </r>
       <r>  -11.6310    1.0000 </r>
       <r>  -11.6310    1.0000 </r>
       <r>   -8.9255    1.0000 </r>
       <r>   -2.0073    0.0000 </r>
       <r>   -2.0073    0.0000 </r>
       <r>   -0.2431    0.0000 </r>
       <r>    1.0547    0.0000 </r>
       <r>    1.1548    0.0000 </r>
       <r>    1.1548    0.0000 </r>
       <r>    1.2576    0.0000 </r>
       <r>    1.2916    0.0000 </r>
       <r>    1.3813    0.0000 </r>
       <r>    2.5161    0.0000 </r>
       <r>    2.5215    0.0000 </r>
       <r>    2.5804    0.0000 </r>
       <r>    2.5804    0.0000 </r>
       <r>    2.7422    0.0000 </r>
       <r>    2.7422    0.0000 </r>
       <r>    2.7595    0.0000 </r>
       <r>    2.7883    0.0000 </r>
       <r>    2.8695    0.0000 </r>
       <r>    2.8788    0.0000 </r>
      </set>
     </set>
    </set>
   </array>
  </eigenvalues>
  <separator name="orbital magnetization" >
   <v name="MAGDIPOLOUT">      0.00000000      0.00000000      0.00000000</v>
  </separator>
  <dos>
   <i name="efermi">     -8.85951822 </i>
   <total>
    <array>
     <dimension dim="1">gridpoints</dimension>
     <dimension dim="2">spin</dimension>
     <field>energy</field>
     <field>total</field>
     <field>integrated</field>
     <set>
      <set comment="spin 1">
       <r>   -30.7814     0.0000     0.0000 </r>
       <r>   -30.6638     0.0000     0.0000 </r>
       <r>   -30.5463     0.0000     0.0000 </r>
       <r>   -30.4287     0.0000     0.0000 </r>
       <r>   -30.3112     0.0000     0.0000 </r>
       <r>   -30.1936     0.0000     0.0000 </r>
       <r>   -30.0761     0.0000     0.0000 </r>
       <r>   -29.9586     0.0000     0.0000 </r>
       <r>   -29.8410     0.0000     0.0000 </r>
       <r>   -29.7235     0.0000     0.0000 </r>
       <r>   -29.6059     0.0000     0.0000 </r>
       <r>   -29.4884     0.0000     0.0000 </r>
       <r>   -29.3708    -0.0000    -0.0000 </r>
       <r>   -29.2533    -0.0000    -0.0000 </r>
       <r>   -29.1358    17.0150     2.0000 </r>
       <r>   -29.0182     0.0000     2.0000 </r>
       <r>   -28.9007     0.0000     2.0000 </r>
       <r>   -28.7831     0.0000     2.0000 </r>
       <r>   -28.6656     0.0000     2.0000 </r>
       <r>   -28.5480     0.0000     2.0000 </r>
       <r>   -28.4305     0.0000     2.0000 </r>
       <r>   -28.3130     0.0000     2.0000 </r>
       <r>   -28.1954     0.0000     2.0000 </r>
       <r>   -28.0779     0.0000     2.0000 </r>
       <r>   -27.9603     0.0000     2.0000 </r>
       <r>   -27.8428     0.0000     2.0000 </r>
       <r>   -27.7252     0.0000     2.0000 </r>
       <r>   -27.6077     0.0000     2.0000 </r>
       <r>   -27.4901     0.0000     2.0000 </r>
       <r>   -27.3726     0.0000     2.0000 </r>
       <r>   -27.2551     0.0000     2.0000 </r>
       <r>   -27.1375     0.0000     2.0000 </r>
       <r>   -27.0200     0.0000     2.0000 </r>
       <r>   -26.9024     0.0000     2.0000 </r>
       <r>   -26.7849     0.0000     2.0000 </r>
       <r>   -26.6673     0.0000     2.0000 </r>
       <r>   -26.5498     0.0000     2.0000 </r>
       <r>   -26.4323     0.0000     2.0000 </r>
       <r>   -26.3147     0.0000     2.0000 </r>
       <r>   -26.1972     0.0000     2.0000 </r>
       <r>   -26.0796     0.0000     2.0000 </r>
       <r>   -25.9621     0.0000     2.0000 </r>
       <r>   -25.8445     0.0000     2.0000 </r>
       <r>   -25.7270     0.0000     2.0000 </r>
       <r>   -25.6095     0.0000     2.0000 </r>
       <r>   -25.4919     0.0000     2.0000 </r>
       <r>   -25.3744     0.0000     2.0000 </r>
       <r>   -25.2568     0.0000     2.0000 </r>
       <r>   -25.1393     0.0000     2.0000 </r>
       <r>   -25.0217     0.0000     2.0000 </r>
       <r>   -24.9042     0.0000     2.0000 </r>
       <r>   -24.7866     0.0000     2.0000 </r>
       <r>   -24.6691     0.0000     2.0000 </r>
       <r>   -24.5516     0.0000     2.0000 </r>
       <r>   -24.4340     0.0000     2.0000 </r>
       <r>   -24.3165     0.0000     2.0000 </r>
       <r>   -24.1989     0.0000     2.0000 </r>
       <r>   -24.0814     0.0000     2.0000 </r>
       <r>   -23.9638     0.0000     2.0000 </r>
       <r>   -23.8463     0.0000     2.0000 </r>
       <r>   -23.7288     0.0000     2.0000 </r>
       <r>   -23.6112     0.0000     2.0000 </r>
       <r>   -23.4937     0.0000     2.0000 </r>
       <r>   -23.3761     0.0000     2.0000 </r>
       <r>   -23.2586     0.0000     2.0000 </r>
       <r>   -23.1410     0.0000     2.0000 </r>
       <r>   -23.0235     0.0000     2.0000 </r>
       <r>   -22.9060     0.0000     2.0000 </r>
       <r>   -22.7884     0.0000     2.0000 </r>
       <r>   -22.6709     0.0000     2.0000 </r>
       <r>   -22.5533     0.0000     2.0000 </r>
       <r>   -22.4358     0.0000     2.0000 </r>
       <r>   -22.3182     0.0000     2.0000 </r>
       <r>   -22.2007     0.0000     2.0000 </r>
       <r>   -22.0832     0.0000     2.0000 </r>
       <r>   -21.9656     0.0000     2.0000 </r>
       <r>   -21.8481     0.0000     2.0000 </r>
       <r>   -21.7305     0.0000     2.0000 </r>
       <r>   -21.6130     0.0000     2.0000 </r>
       <r>   -21.4954     0.0000     2.0000 </r>
       <r>   -21.3779     0.0000     2.0000 </r>
       <r>   -21.2603     0.0000     2.0000 </r>
       <r>   -21.1428     0.0000     2.0000 </r>
       <r>   -21.0253     0.0000     2.0000 </r>
       <r>   -20.9077     0.0000     2.0000 </r>
       <r>   -20.7902     0.0000     2.0000 </r>
       <r>   -20.6726     0.0000     2.0000 </r>
       <r>   -20.5551     0.0000     2.0000 </r>
       <r>   -20.4375     0.0000     2.0000 </r>
       <r>   -20.3200     0.0000     2.0000 </r>
       <r>   -20.2025     0.0000     2.0000 </r>
       <r>   -20.0849     0.0000     2.0000 </r>
       <r>   -19.9674     0.0000     2.0000 </r>
       <r>   -19.8498     0.0000     2.0000 </r>
       <r>   -19.7323     0.0000     2.0000 </r>
       <r>   -19.6147     0.0000     2.0000 </r>
       <r>   -19.4972     0.0000     2.0000 </r>
       <r>   -19.3797     0.0000     2.0000 </r>
       <r>   -19.2621     0.0000     2.0000 </r>
       <r>   -19.1446     0.0000     2.0000 </r>
       <r>   -19.0270     0.0000     2.0000 </r>
       <r>   -18.9095     0.0000     2.0000 </r>
       <r>   -18.7919     0.0000     2.0000 </r>
       <r>   -18.6744     0.0000     2.0000 </r>
       <r>   -18.5568     0.0000     2.0000 </r>
       <r>   -18.4393     0.0000     2.0000 </r>
       <r>   -18.3218     0.0000     2.0000 </r>
       <r>   -18.2042     0.0000     2.0000 </r>
       <r>   -18.0867     0.0000     2.0000 </r>
       <r>   -17.9691     0.0000     2.0000 </r>
       <r>   -17.8516     0.0000     2.0000 </r>
       <r>   -17.7340     0.0000     2.0000 </r>
       <r>   -17.6165     0.0000     2.0000 </r>
       <r>   -17.4990     0.0000     2.0000 </r>
       <r>   -17.3814     0.0000     2.0000 </r>
       <r>   -17.2639     0.0000     2.0000 </r>
       <r>   -17.1463     0.0000     2.0000 </r>
       <r>   -17.0288     0.0000     2.0000 </r>
       <r>   -16.9112     0.0000     2.0000 </r>
       <r>   -16.7937     0.0000     2.0000 </r>
       <r>   -16.6762     0.0000     2.0000 </r>
       <r>   -16.5586     0.0000     2.0000 </r>
       <r>   -16.4411     0.0000     2.0000 </r>
       <r>   -16.3235     0.0000     2.0000 </r>
       <r>   -16.2060     0.0000     2.0000 </r>
       <r>   -16.0884     0.0000     2.0000 </r>
       <r>   -15.9709     0.0000     2.0000 </r>
       <r>   -15.8534     0.0000     2.0000 </r>
       <r>   -15.7358     0.0000     2.0000 </r>
       <r>   -15.6183     0.0000     2.0000 </r>
       <r>   -15.5007     0.0000     2.0000 </r>
       <r>   -15.3832     0.0000     2.0000 </r>
       <r>   -15.2656     0.0000     2.0000 </r>
       <r>   -15.1481     0.0000     2.0000 </r>
       <r>   -15.0305     0.0000     2.0000 </r>
       <r>   -14.9130     0.0000     2.0000 </r>
       <r>   -14.7955     0.0000     2.0000 </r>
       <r>   -14.6779     0.0000     2.0000 </r>
       <r>   -14.5604     0.0000     2.0000 </r>
       <r>   -14.4428     0.0000     2.0000 </r>
       <r>   -14.3253     0.0000     2.0000 </r>
       <r>   -14.2077     0.0000     2.0000 </r>
       <r>   -14.0902    -0.0000     2.0000 </r>
       <r>   -13.9727    -0.0691     1.9919 </r>
       <r>   -13.8551     0.0000     4.0000 </r>
       <r>   -13.7376     0.0000     4.0000 </r>
       <r>   -13.6200     0.0000     4.0000 </r>
       <r>   -13.5025     0.0000     4.0000 </r>
       <r>   -13.3849     0.0000     4.0000 </r>
       <r>   -13.2674     0.0000     4.0000 </r>
       <r>   -13.1499     0.0000     4.0000 </r>
       <r>   -13.0323     0.0000     4.0000 </r>
       <r>   -12.9148     0.0000     4.0000 </r>
       <r>   -12.7972     0.0000     4.0000 </r>
       <r>   -12.6797     0.0000     4.0000 </r>
       <r>   -12.5621     0.0000     4.0000 </r>
       <r>   -12.4446     0.0000     4.0000 </r>
       <r>   -12.3270     0.0000     4.0000 </r>
       <r>   -12.2095     0.0000     4.0000 </r>
       <r>   -12.0920     0.0000     4.0000 </r>
       <r>   -11.9744     0.0000     4.0000 </r>
       <r>   -11.8569     0.0000     4.0000 </r>
       <r>   -11.7393    -0.0000     4.0000 </r>
       <r>   -11.6218    34.5411     8.0601 </r>
       <r>   -11.5042     0.0000     8.0000 </r>
       <r>   -11.3867     0.0000     8.0000 </r>
       <r>   -11.2692     0.0000     8.0000 </r>
       <r>   -11.1516     0.0000     8.0000 </r>
       <r>   -11.0341     0.0000     8.0000 </r>
       <r>   -10.9165     0.0000     8.0000 </r>
       <r>   -10.7990     0.0000     8.0000 </r>
       <r>   -10.6814     0.0000     8.0000 </r>
       <r>   -10.5639     0.0000     8.0000 </r>
       <r>   -10.4464     0.0000     8.0000 </r>
       <r>   -10.3288     0.0000     8.0000 </r>
       <r>   -10.2113     0.0000     8.0000 </r>
       <r>   -10.0937     0.0000     8.0000 </r>
       <r>    -9.9762     0.0000     8.0000 </r>
       <r>    -9.8586     0.0000     8.0000 </r>
       <r>    -9.7411     0.0000     8.0000 </r>
       <r>    -9.6236     0.0000     8.0000 </r>
       <r>    -9.5060     0.0000     8.0000 </r>
       <r>    -9.3885     0.0000     8.0000 </r>
       <r>    -9.2709     0.0000     8.0000 </r>
       <r>    -9.1534     0.0000     8.0000 </r>
       <r>    -9.0358    -0.0000     8.0000 </r>
       <r>    -8.9183    16.4268     9.9309 </r>
       <r>    -8.8007     0.0000    10.0000 </r>
       <r>    -8.6832     0.0000    10.0000 </r>
       <r>    -8.5657     0.0000    10.0000 </r>
       <r>    -8.4481     0.0000    10.0000 </r>
       <r>    -8.3306     0.0000    10.0000 </r>
       <r>    -8.2130     0.0000    10.0000 </r>
       <r>    -8.0955     0.0000    10.0000 </r>
       <r>    -7.9779     0.0000    10.0000 </r>
       <r>    -7.8604     0.0000    10.0000 </r>
       <r>    -7.7429     0.0000    10.0000 </r>
       <r>    -7.6253     0.0000    10.0000 </r>
       <r>    -7.5078     0.0000    10.0000 </r>
       <r>    -7.3902     0.0000    10.0000 </r>
       <r>    -7.2727     0.0000    10.0000 </r>
       <r>    -7.1551     0.0000    10.0000 </r>
       <r>    -7.0376     0.0000    10.0000 </r>
       <r>    -6.9201     0.0000    10.0000 </r>
       <r>    -6.8025     0.0000    10.0000 </r>
       <r>    -6.6850     0.0000    10.0000 </r>
       <r>    -6.5674     0.0000    10.0000 </r>
       <r>    -6.4499     0.0000    10.0000 </r>
       <r>    -6.3323     0.0000    10.0000 </r>
       <r>    -6.2148     0.0000    10.0000 </r>
       <r>    -6.0972     0.0000    10.0000 </r>
       <r>    -5.9797     0.0000    10.0000 </r>
       <r>    -5.8622     0.0000    10.0000 </r>
       <r>    -5.7446     0.0000    10.0000 </r>
       <r>    -5.6271     0.0000    10.0000 </r>
       <r>    -5.5095     0.0000    10.0000 </r>
       <r>    -5.3920     0.0000    10.0000 </r>
       <r>    -5.2744     0.0000    10.0000 </r>
       <r>    -5.1569     0.0000    10.0000 </r>
       <r>    -5.0394     0.0000    10.0000 </r>
       <r>    -4.9218     0.0000    10.0000 </r>
       <r>    -4.8043     0.0000    10.0000 </r>
       <r>    -4.6867     0.0000    10.0000 </r>
       <r>    -4.5692     0.0000    10.0000 </r>
       <r>    -4.4516     0.0000    10.0000 </r>
       <r>    -4.3341     0.0000    10.0000 </r>
       <r>    -4.2166     0.0000    10.0000 </r>
       <r>    -4.0990     0.0000    10.0000 </r>
       <r>    -3.9815     0.0000    10.0000 </r>
       <r>    -3.8639     0.0000    10.0000 </r>
       <r>    -3.7464     0.0000    10.0000 </r>
       <r>    -3.6288     0.0000    10.0000 </r>
       <r>    -3.5113     0.0000    10.0000 </r>
       <r>    -3.3938     0.0000    10.0000 </r>
       <r>    -3.2762     0.0000    10.0000 </r>
       <r>    -3.1587     0.0000    10.0000 </r>
       <r>    -3.0411     0.0000    10.0000 </r>
       <r>    -2.9236     0.0000    10.0000 </r>
       <r>    -2.8060     0.0000    10.0000 </r>
       <r>    -2.6885     0.0000    10.0000 </r>
       <r>    -2.5709     0.0000    10.0000 </r>
       <r>    -2.4534     0.0000    10.0000 </r>
       <r>    -2.3359     0.0000    10.0000 </r>
       <r>    -2.2183     0.0000    10.0000 </r>
       <r>    -2.1008    -0.0000    10.0000 </r>
       <r>    -1.9832    34.0879    14.0068 </r>
       <r>    -1.8657     0.0000    14.0000 </r>
       <r>    -1.7481     0.0000    14.0000 </r>
       <r>    -1.6306     0.0000    14.0000 </r>
       <r>    -1.5131     0.0000    14.0000 </r>
       <r>    -1.3955     0.0000    14.0000 </r>
       <r>    -1.2780     0.0000    14.0000 </r>
       <r>    -1.1604     0.0000    14.0000 </r>
       <r>    -1.0429     0.0000    14.0000 </r>
       <r>    -0.9253     0.0000    14.0000 </r>
       <r>    -0.8078     0.0000    14.0000 </r>
       <r>    -0.6903     0.0000    14.0000 </r>
       <r>    -0.5727     0.0000    14.0000 </r>
       <r>    -0.4552     0.0000    14.0000 </r>
       <r>    -0.3376    -0.0000    14.0000 </r>
       <r>    -0.2201    17.0597    16.0052 </r>
       <r>    -0.1025     0.0000    16.0000 </r>
       <r>     0.0150     0.0000    16.0000 </r>
       <r>     0.1326     0.0000    16.0000 </r>
       <r>     0.2501     0.0000    16.0000 </r>
       <r>     0.3676     0.0000    16.0000 </r>
       <r>     0.4852     0.0000    16.0000 </r>
       <r>     0.6027     0.0000    16.0000 </r>
       <r>     0.7203     0.0000    16.0000 </r>
       <r>     0.8378     0.0000    16.0000 </r>
       <r>     0.9554    -0.0000    16.0000 </r>
       <r>     1.0729    17.2464    18.0272 </r>
       <r>     1.1904    34.0301    22.0000 </r>
       <r>     1.3080    34.3914    26.0425 </r>
       <r>     1.4255    17.0150    28.0000 </r>
       <r>     1.5431     0.0000    28.0000 </r>
       <r>     1.6606     0.0000    28.0000 </r>
       <r>     1.7782     0.0000    28.0000 </r>
       <r>     1.8957     0.0000    28.0000 </r>
       <r>     2.0132     0.0000    28.0000 </r>
       <r>     2.1308     0.0000    28.0000 </r>
       <r>     2.2483     0.0000    28.0000 </r>
       <r>     2.3659    -0.0000    28.0000 </r>
       <r>     2.4834    -0.0003    28.0000 </r>
       <r>     2.6010    51.2677    36.0262 </r>
       <r>     2.7185    -0.0694    35.9918 </r>
       <r>     2.8360    34.0298    44.0000 </r>
       <r>     2.9536    17.0150    48.0000 </r>
       <r>     3.0711     0.0000    48.0000 </r>
       <r>     3.1887     0.0000    48.0000 </r>
       <r>     3.3062     0.0000    48.0000 </r>
       <r>     3.4238     0.0000    48.0000 </r>
       <r>     3.5413     0.0000    48.0000 </r>
       <r>     3.6589     0.0000    48.0000 </r>
       <r>     3.7764     0.0000    48.0000 </r>
       <r>     3.8939     0.0000    48.0000 </r>
       <r>     4.0115     0.0000    48.0000 </r>
       <r>     4.1290     0.0000    48.0000 </r>
       <r>     4.2466     0.0000    48.0000 </r>
       <r>     4.3641     0.0000    48.0000 </r>
       <r>     4.4817     0.0000    48.0000 </r>
      </set>
     </set>
    </array>
   </total>
  </dos>
 </calculation>
 <structure name="finalpos" >
  <crystal>
   <varray name="basis" >
    <v>      10.00000000       0.00000000       0.00000000 </v>
    <v>       0.00000000      10.00000000       0.00000000 </v>
    <v>       0.00000000       0.00000000      10.00000000 </v>
   </varray>
   <i name="volume">   1000.00000000 </i>
   <varray name="rec_basis" >
    <v>       0.10000000       0.00000000       0.00000000 </v>
    <v>       0.00000000       0.10000000       0.00000000 </v>
    <v>       0.00000000       0.00000000       0.10000000 </v>
   </varray>
  </crystal>
  <varray name="positions" >
   <v>       0.50000000       0.50000000       0.44281082 </v>
   <v>       0.50000000       0.50000000       0.55718918 </v>
  </varray>
 </structure>
</modeling>
