unknown system                          
           1
    10.000000    0.000000    0.000000
     0.000000   10.000000    0.000000
     0.000000    0.000000   10.000000
   C    O 
   1   1
Direct configuration=     1
   0.50000000  0.50000000  0.44500000
   0.50000000  0.50000000  0.55500000
Direct configuration=     2
   0.50000000  0.50000000  0.41708366
   0.50000000  0.50000000  0.58291634
Direct configuration=     3
   0.50000000  0.50000000  0.43567257
   0.50000000  0.50000000  0.56432743
Direct configuration=     4
   0.50000000  0.50000000  0.44153386
   0.50000000  0.50000000  0.55846614
Direct configuration=     5
   0.50000000  0.50000000  0.44261311
   0.50000000  0.50000000  0.55738689
Direct configuration=     6
   0.50000000  0.50000000  0.44281082
   0.50000000  0.50000000  0.55718918
