unknown system                          
   1.00000000000000     
     5.000000    0.000000    0.000000
     0.000000    5.000000    0.000000
     0.000000    0.000000    5.000000
   C    O 
     1     1
Direct
  0.380000  0.500000  0.500000
  0.620000  0.500000  0.500000
 
   48   48   48
 0.10194E-01 0.95956E-02 0.76677E-02 0.63334E-02 0.71309E-02 0.10563E-01 0.15809E-01 0.20619E-01 0.22308E-01 0.19979E-01
 0.15717E-01 0.12807E-01 0.12637E-01 0.13891E-01 0.14703E-01 0.14672E-01 0.14445E-01 0.14311E-01 0.14126E-01 0.14102E-01
 0.14626E-01 0.15321E-01 0.15229E-01 0.14094E-01 0.12731E-01 0.11805E-01 0.10940E-01 0.95050E-02 0.77104E-02 0.62911E-02
 0.54782E-02 0.49677E-02 0.46682E-02 0.47184E-02 0.48294E-02 0.44683E-02 0.39428E-02 0.45194E-02 0.68783E-02 0.98660E-02
 0.11365E-01 0.10264E-01 0.72471E-02 0.39983E-02 0.21444E-02 0.26432E-02 0.52780E-02 0.84699E-02 0.10625E-01 0.99747E-02
 0.79439E-02 0.66006E-02 0.75041E-02 0.10912E-01 0.15754E-01 0.19930E-01 0.21272E-01 0.19218E-01 0.15618E-01 0.13255E-01
 0.13309E-01 0.14646E-01 0.15570E-01 0.15587E-01 0.15215E-01 0.14838E-01 0.14500E-01 0.14424E-01 0.14841E-01 0.15329E-01
 0.15051E-01 0.13854E-01 0.12514E-01 0.11645E-01 0.10897E-01 0.96440E-02 0.80009E-02 0.66224E-02 0.58061E-02 0.53602E-02
 0.51657E-02 0.52284E-02 0.52216E-02 0.47086E-02 0.40476E-02 0.44213E-02 0.64535E-02 0.91270E-02 0.10554E-01 0.97006E-02
 0.70990E-02 0.42022E-02 0.25134E-02 0.30279E-02 0.56490E-02 0.88711E-02 0.11510E-01 0.10883E-01 0.88435E-02 0.75644E-02
 0.85567E-02 0.11650E-01 0.15413E-01 0.18171E-01 0.18854E-01 0.17554E-01 0.15579E-01 0.14587E-01 0.15260E-01 0.16819E-01
 0.17941E-01 0.17990E-01 0.17273E-01 0.16407E-01 0.15805E-01 0.15617E-01 0.15706E-01 0.15582E-01 0.14760E-01 0.13351E-01
 0.12044E-01 0.11318E-01 0.10889E-01 0.10149E-01 0.89504E-02 0.77009E-02 0.68200E-02 0.64162E-02 0.63895E-02 0.64866E-02
 0.62672E-02 0.54455E-02 0.44451E-02 0.42592E-02 0.54330E-02 0.73175E-02 0.85744E-02 0.83392E-02 0.67781E-02 0.48017E-02
 0.35921E-02 0.41556E-02 0.66261E-02 0.97446E-02 0.11991E-01 0.11749E-01 0.10325E-01 0.94325E-02 0.10257E-01 0.12493E-01
 0.14862E-01 0.16303E-01 0.16618E-01 0.16303E-01 0.16119E-01 0.16713E-01 0.18218E-01 0.20030E-01 0.21155E-01 0.21020E-01
 0.19960E-01 0.18842E-01 0.18257E-01 0.18087E-01 0.17759E-01 0.16799E-01 0.15192E-01 0.13400E-01 0.12046E-01 0.11464E-01
 0.11418E-01 0.11298E-01 0.10639E-01 0.94988E-02 0.83733E-02 0.77581E-02 0.77459E-02 0.79268E-02 0.76784E-02 0.66936E-02
 0.53380E-02 0.44274E-02 0.45356E-02 0.54893E-02 0.65435E-02 0.69949E-02 0.66307E-02 0.57974E-02 0.52578E-02 0.58460E-02
 0.78274E-02 0.10381E-01 0.11522E-01 0.12013E-01 0.11935E-01 0.11997E-01 0.12722E-01 0.13941E-01 0.15039E-01 0.15632E-01
 0.15912E-01 0.16409E-01 0.17558E-01 0.19443E-01 0.21711E-01 0.23616E-01 0.24375E-01 0.23783E-01 0.22522E-01 0.21640E-01
 0.21590E-01 0.21827E-01 0.21393E-01 0.19828E-01 0.17504E-01 0.15235E-01 0.13705E-01 0.13155E-01 0.13307E-01 0.13482E-01
 0.12985E-01 0.11643E-01 0.10011E-01 0.89332E-02 0.87936E-02 0.91713E-02 0.92274E-02 0.84220E-02 0.69214E-02 0.54194E-02
 0.46105E-02 0.47474E-02 0.55550E-02 0.64795E-02 0.70619E-02 0.72116E-02 0.72487E-02 0.76768E-02 0.87731E-02 0.10277E-01
 0.10319E-01 0.11568E-01 0.13095E-01 0.14624E-01 0.15874E-01 0.16650E-01 0.16920E-01 0.16902E-01 0.17068E-01 0.17975E-01
 0.19927E-01 0.22675E-01 0.25398E-01 0.27077E-01 0.27134E-01 0.25919E-01 0.24575E-01 0.24228E-01 0.25064E-01 0.26149E-01
 0.26208E-01 0.24667E-01 0.22031E-01 0.19384E-01 0.17608E-01 0.16942E-01 0.16965E-01 0.16858E-01 0.15865E-01 0.13844E-01
 0.11487E-01 0.98725E-02 0.95963E-02 0.10274E-01 0.10878E-01 0.10564E-01 0.92243E-02 0.74309E-02 0.59822E-02 0.54489E-02
 0.59245E-02 0.70367E-02 0.81983E-02 0.89575E-02 0.92151E-02 0.91837E-02 0.91932E-02 0.95224E-02 0.91880E-02 0.10937E-01
 0.13715E-01 0.16743E-01 0.19104E-01 0.20245E-01 0.20235E-01 0.19708E-01 0.19589E-01 0.20689E-01 0.23233E-01 0.26577E-01
 0.29426E-01 0.30588E-01 0.29783E-01 0.27891E-01 0.26411E-01 0.26474E-01 0.28072E-01 0.30055E-01 0.30934E-01 0.29922E-01
 0.27425E-01 0.24650E-01 0.22697E-01 0.21870E-01 0.21607E-01 0.20939E-01 0.19141E-01 0.16250E-01 0.13145E-01 0.11034E-01
 0.10615E-01 0.11553E-01 0.12727E-01 0.13027E-01 0.12028E-01 0.10116E-01 0.81512E-02 0.69929E-02 0.70810E-02 0.82203E-02
 0.96980E-02 0.10717E-01 0.10848E-01 0.10199E-01 0.92706E-02 0.87300E-02 0.89984E-02 0.10959E-01 0.14342E-01 0.18303E-01
 0.21671E-01 0.23535E-01 0.23769E-01 0.23159E-01 0.23018E-01 0.24449E-01 0.27600E-01 0.31431E-01 0.34277E-01 0.34899E-01
 0.33304E-01 0.30739E-01 0.28898E-01 0.28907E-01 0.30687E-01 0.33039E-01 0.34400E-01 0.33825E-01 0.31570E-01 0.28825E-01
 0.26808E-01 0.25914E-01 0.25535E-01 0.24589E-01 0.22329E-01 0.18896E-01 0.15290E-01 0.12800E-01 0.12196E-01 0.13237E-01
 0.14814E-01 0.15625E-01 0.14918E-01 0.12852E-01 0.10360E-01 0.86102E-02 0.83468E-02 0.94516E-02 0.11047E-01 0.12089E-01
 0.12007E-01 0.10942E-01 0.95489E-02 0.86575E-02 0.10274E-01 0.12255E-01 0.15642E-01 0.19736E-01 0.23497E-01 0.26012E-01
 0.27002E-01 0.27078E-01 0.27505E-01 0.29436E-01 0.33046E-01 0.37219E-01 0.40170E-01 0.40607E-01 0.38588E-01 0.35464E-01
 0.33020E-01 0.32442E-01 0.33699E-01 0.35641E-01 0.36736E-01 0.36011E-01 0.33643E-01 0.30769E-01 0.28643E-01 0.27740E-01
 0.27473E-01 0.26678E-01 0.24506E-01 0.21068E-01 0.17399E-01 0.14825E-01 0.14155E-01 0.15217E-01 0.16957E-01 0.18005E-01
 0.17414E-01 0.15202E-01 0.12365E-01 0.10272E-01 0.97810E-02 0.10725E-01 0.12134E-01 0.12980E-01 0.12794E-01 0.11778E-01
 0.10545E-01 0.98269E-02 0.13053E-01 0.14914E-01 0.17865E-01 0.21526E-01 0.25279E-01 0.28482E-01 0.30727E-01 0.32129E-01
 0.33438E-01 0.35650E-01 0.39207E-01 0.43413E-01 0.46685E-01 0.47577E-01 0.45813E-01 0.42500E-01 0.39424E-01 0.37945E-01
 0.38222E-01 0.39231E-01 0.39487E-01 0.38031E-01 0.35031E-01 0.31622E-01 0.29090E-01 0.27968E-01 0.27688E-01 0.27037E-01
 0.25096E-01 0.21940E-01 0.18602E-01 0.16365E-01 0.15946E-01 0.17095E-01 0.18774E-01 0.19710E-01 0.19078E-01 0.16974E-01
 0.14381E-01 0.12526E-01 0.12048E-01 0.12638E-01 0.13442E-01 0.13779E-01 0.13518E-01 0.12928E-01 0.12394E-01 0.12305E-01
 0.16920E-01 0.18551E-01 0.20778E-01 0.23820E-01 0.27677E-01 0.31926E-01 0.35808E-01 0.38697E-01 0.40669E-01 0.42585E-01
 0.45413E-01 0.49270E-01 0.53047E-01 0.55096E-01 0.54453E-01 0.51619E-01 0.48234E-01 0.45910E-01 0.45150E-01 0.45128E-01
 0.44405E-01 0.42008E-01 0.38098E-01 0.33821E-01 0.30491E-01 0.28681E-01 0.27869E-01 0.26893E-01 0.24882E-01 0.21938E-01
 0.19049E-01 0.17354E-01 0.17347E-01 0.18573E-01 0.19949E-01 0.20434E-01 0.19624E-01 0.17949E-01 0.16327E-01 0.15481E-01
 0.15447E-01 0.15662E-01 0.15552E-01 0.15029E-01 0.14480E-01 0.14343E-01 0.14776E-01 0.15675E-01 0.21152E-01 0.22540E-01
 0.23924E-01 0.26379E-01 0.30618E-01 0.36262E-01 0.41928E-01 0.46137E-01 0.48373E-01 0.49497E-01 0.51144E-01 0.54406E-01
 0.58818E-01 0.62551E-01 0.63794E-01 0.62196E-01 0.59072E-01 0.56252E-01 0.54641E-01 0.53702E-01 0.52124E-01 0.48939E-01
 0.44241E-01 0.39088E-01 0.34754E-01 0.31865E-01 0.30034E-01 0.28268E-01 0.25833E-01 0.22859E-01 0.20221E-01 0.18836E-01
 0.18950E-01 0.19920E-01 0.20637E-01 0.20313E-01 0.19082E-01 0.17871E-01 0.17598E-01 0.18350E-01 0.19310E-01 0.19470E-01
 0.18472E-01 0.16865E-01 0.15684E-01 0.15744E-01 0.17138E-01 0.19230E-01 0.25083E-01 0.26308E-01 0.26918E-01 0.28870E-01
 0.33577E-01 0.40637E-01 0.48011E-01 0.53401E-01 0.55768E-01 0.56036E-01 0.56509E-01 0.59233E-01 0.64382E-01 0.69991E-01
 0.73460E-01 0.73566E-01 0.71177E-01 0.68191E-01 0.65874E-01 0.64103E-01 0.61849E-01 0.58194E-01 0.53069E-01 0.47317E-01
 0.42131E-01 0.38210E-01 0.35315E-01 0.32615E-01 0.29525E-01 0.26237E-01 0.23519E-01 0.22041E-01 0.21797E-01 0.22005E-01
 0.21591E-01 0.20041E-01 0.17997E-01 0.16903E-01 0.17783E-01 0.20210E-01 0.22519E-01 0.23084E-01 0.21513E-01 0.18848E-01
 0.16828E-01 0.16836E-01 0.19072E-01 0.22387E-01 0.28540E-01 0.29697E-01 0.29721E-01 0.31276E-01 0.36342E-01 0.44569E-01
 0.53469E-01 0.60066E-01 0.62820E-01 0.62655E-01 0.62431E-01 0.64969E-01 0.70908E-01 0.78168E-01 0.83582E-01 0.85262E-01
 0.83623E-01 0.80481E-01 0.77414E-01 0.74813E-01 0.72029E-01 0.68167E-01 0.62917E-01 0.56917E-01 0.51309E-01 0.46814E-01
 0.43176E-01 0.39599E-01 0.35669E-01 0.31789E-01 0.28761E-01 0.27042E-01 0.26303E-01 0.25549E-01 0.23728E-01 0.20629E-01
 0.17396E-01 0.15931E-01 0.17382E-01 0.20990E-01 0.24469E-01 0.25626E-01 0.23849E-01 0.20420E-01 0.17688E-01 0.17650E-01
 0.20666E-01 0.25113E-01 0.31995E-01 0.33149E-01 0.32791E-01 0.34035E-01 0.39253E-01 0.48274E-01 0.58466E-01 0.66424E-01
 0.70136E-01 0.70383E-01 0.70304E-01 0.73142E-01 0.79759E-01 0.88011E-01 0.94497E-01 0.97011E-01 0.95646E-01 0.92088E-01
 0.88144E-01 0.84664E-01 0.81320E-01 0.77206E-01 0.71850E-01 0.65799E-01 0.60156E-01 0.55498E-01 0.51379E-01 0.46991E-01
 0.42159E-01 0.37592E-01 0.34218E-01 0.32372E-01 0.31441E-01 0.30124E-01 0.27245E-01 0.22790E-01 0.18345E-01 0.16196E-01
 0.17566E-01 0.21496E-01 0.25417E-01 0.26885E-01 0.25115E-01 0.21427E-01 0.18490E-01 0.18712E-01 0.22541E-01 0.27966E-01
 0.36106E-01 0.37354E-01 0.36790E-01 0.37704E-01 0.42736E-01 0.52042E-01 0.63208E-01 0.72732E-01 0.78227E-01 0.80070E-01
 0.81166E-01 0.84693E-01 0.91560E-01 0.99778E-01 0.10615     0.10855     0.10696     0.10288     0.98101E-01 0.93643E-01
 0.89365E-01 0.84489E-01 0.78636E-01 0.72368E-01 0.66633E-01 0.61735E-01 0.57098E-01 0.52045E-01 0.46635E-01 0.41666E-01
 0.38038E-01 0.36087E-01 0.35220E-01 0.34022E-01 0.31080E-01 0.26256E-01 0.21247E-01 0.18511E-01 0.19308E-01 0.22646E-01
 0.26039E-01 0.27222E-01 0.25504E-01 0.22147E-01 0.19750E-01 0.20707E-01 0.25396E-01 0.31600E-01 0.40983E-01 0.42479E-01
 0.41892E-01 0.42411E-01 0.46845E-01 0.55842E-01 0.67567E-01 0.78817E-01 0.86958E-01 0.91621E-01 0.94808E-01 0.99107E-01
 0.10546     0.11248     0.11773     0.11954     0.11784     0.11372     0.10848     0.10293     0.97085E-01 0.90611E-01
 0.83503E-01 0.76360E-01 0.69890E-01 0.64243E-01 0.59001E-01 0.53767E-01 0.48584E-01 0.43860E-01 0.40107E-01 0.37713E-01
 0.36542E-01 0.35596E-01 0.33474E-01 0.29667E-01 0.25384E-01 0.22718E-01 0.22806E-01 0.24847E-01 0.26841E-01 0.27126E-01
 0.25396E-01 0.22860E-01 0.21698E-01 0.23820E-01 0.29347E-01 0.36095E-01 0.45873E-01 0.47760E-01 0.47412E-01 0.47665E-01
 0.51332E-01 0.59588E-01 0.71446E-01 0.84361E-01 0.95623E-01 0.10385     0.10956     0.11435     0.11932     0.12426    
 0.12808     0.12979     0.12903     0.12594     0.12082     0.11408     0.10610     0.97273E-01 0.88086E-01 0.79175E-01
 0.71167E-01 0.64431E-01 0.58999E-01 0.54649E-01 0.50954E-01 0.47388E-01 0.43673E-01 0.40097E-01 0.37250E-01 0.35265E-01
 0.33542E-01 0.31453E-01 0.29214E-01 0.27715E-01 0.27465E-01 0.27915E-01 0.27949E-01 0.26893E-01 0.25048E-01 0.23576E-01
 0.24010E-01 0.27471E-01 0.33701E-01 0.40720E-01 0.49615E-01 0.51999E-01 0.52298E-01 0.52780E-01 0.55971E-01 0.63414E-01
 0.75057E-01 0.89266E-01 0.10344     0.11512     0.12313     0.12793     0.13097     0.13369     0.13673     0.13974    
 0.14152     0.14057     0.13596     0.12786     0.11740     0.10587     0.94239E-01 0.83194E-01 0.73557E-01 0.66277E-01
 0.61980E-01 0.60390E-01 0.60111E-01 0.59087E-01 0.55678E-01 0.49710E-01 0.42628E-01 0.36497E-01 0.32677E-01 0.31243E-01
 0.31371E-01 0.31993E-01 0.32164E-01 0.31252E-01 0.29199E-01 0.26634E-01 0.24623E-01 0.24229E-01 0.26220E-01 0.30843E-01
 0.37460E-01 0.44399E-01 0.51490E-01 0.54515E-01 0.56019E-01 0.57466E-01 0.60743E-01 0.67539E-01 0.78718E-01 0.93663E-01
 0.11001     0.12436     0.13400     0.13841     0.13963     0.14092     0.14464     0.15063     0.15621     0.15788    
 0.15353     0.14359     0.13034     0.11620     0.10261     0.90310E-01 0.80309E-01 0.74183E-01 0.73245E-01 0.77145E-01
 0.83123E-01 0.86760E-01 0.84133E-01 0.74128E-01 0.59307E-01 0.44559E-01 0.34375E-01 0.30555E-01 0.31697E-01 0.34485E-01
 0.35757E-01 0.34123E-01 0.30347E-01 0.26456E-01 0.24364E-01 0.24985E-01 0.28263E-01 0.33603E-01 0.40084E-01 0.46468E-01
 0.51681E-01 0.55570E-01 0.58855E-01 0.61921E-01 0.65764E-01 0.72094E-01 0.82650E-01 0.97798E-01 0.11546     0.13154    
 0.14213     0.14611     0.14625     0.14751     0.15351     0.16369     0.17342     0.17715     0.17204     0.15934    
 0.14293     0.12658     0.11232     0.10076     0.92710E-01 0.90146E-01 0.95189E-01 0.10763     0.12306     0.13380    
 0.13266     0.11714     0.91239E-01 0.63394E-01 0.42133E-01 0.31892E-01 0.31393E-01 0.35273E-01 0.37773E-01 0.36091E-01
 0.31292E-01 0.26565E-01 0.24608E-01 0.26187E-01 0.30445E-01 0.36004E-01 0.41757E-01 0.47068E-01 0.50998E-01 0.55936E-01
 0.61339E-01 0.66352E-01 0.71022E-01 0.77058E-01 0.86953E-01 0.10191     0.12019     0.13728     0.14847     0.15231    
 0.15230     0.15483     0.16423     0.17892     0.19214     0.19662     0.18937     0.17296     0.15317     0.13529    
 0.12185     0.11304     0.10910     0.11221     0.12532     0.14843     0.17533     0.19474     0.19582     0.17448    
 0.13597     0.92372E-01 0.56706E-01 0.36752E-01 0.32028E-01 0.35473E-01 0.38729E-01 0.37316E-01 0.32160E-01 0.27158E-01
 0.25542E-01 0.27961E-01 0.32920E-01 0.38350E-01 0.42984E-01 0.46894E-01 0.50246E-01 0.56198E-01 0.63600E-01 0.70471E-01
 0.76055E-01 0.82025E-01 0.91369E-01 0.10592     0.12432     0.14199     0.15370     0.15775     0.15824     0.16265    
 0.17556     0.19419     0.20974     0.21369     0.20337     0.18296     0.16016     0.14154     0.12983     0.12462    
 0.12558     0.13507     0.15671     0.19040     0.22821     0.25585     0.25955     0.23358     0.18375     0.12503    
 0.74684E-01 0.44150E-01 0.34123E-01 0.36134E-01 0.39500E-01 0.38257E-01 0.33086E-01 0.28177E-01 0.26951E-01 0.29967E-01
 0.35359E-01 0.40536E-01 0.44056E-01 0.46615E-01 0.49802E-01 0.56467E-01 0.65276E-01 0.73497E-01 0.79854E-01 0.85938E-01
 0.94944E-01 0.10907     0.12736     0.14534     0.15749     0.16188     0.16299     0.16895     0.18449     0.20578    
 0.22254     0.22547     0.21239     0.18887     0.16403     0.14525     0.13519     0.13290     0.13772     0.15225    
 0.18049     0.22196     0.26743     0.30084     0.30671     0.27811     0.22070     0.15108     0.89668E-01 0.50920E-01
 0.36605E-01 0.37204E-01 0.40331E-01 0.39053E-01 0.33918E-01 0.29187E-01 0.28238E-01 0.31562E-01 0.37152E-01 0.42125E-01
 0.44877E-01 0.46498E-01 0.49671E-01 0.56589E-01 0.65900E-01 0.74619E-01 0.81289E-01 0.87455E-01 0.96351E-01 0.11030    
 0.12851     0.14658     0.15892     0.16347     0.16483     0.17140     0.18790     0.21013     0.22725     0.22969    
 0.21550     0.19080     0.16525     0.14648     0.13709     0.13590     0.14217     0.15862     0.18935     0.23368    
 0.28187     0.31733     0.32406     0.29466     0.23462     0.16104     0.95504E-01 0.53659E-01 0.37714E-01 0.37746E-01
 0.40727E-01 0.39394E-01 0.34267E-01 0.29613E-01 0.28760E-01 0.32168E-01 0.37808E-01 0.42706E-01 0.45193E-01 0.46484E-01
 0.49802E-01 0.56467E-01 0.65276E-01 0.73497E-01 0.79854E-01 0.85938E-01 0.94944E-01 0.10907     0.12736     0.14534    
 0.15749     0.16188     0.16299     0.16895     0.18449     0.20578     0.22254     0.22547     0.21239     0.18887    
 0.16403     0.14525     0.13519     0.13290     0.13772     0.15225     0.18049     0.22196     0.26743     0.30084    
 0.30671     0.27811     0.22070     0.15108     0.89668E-01 0.50920E-01 0.36605E-01 0.37204E-01 0.40331E-01 0.39053E-01
 0.33918E-01 0.29187E-01 0.28238E-01 0.31562E-01 0.37152E-01 0.42125E-01 0.44877E-01 0.46498E-01 0.50246E-01 0.56198E-01
 0.63600E-01 0.70471E-01 0.76055E-01 0.82025E-01 0.91369E-01 0.10592     0.12432     0.14199     0.15370     0.15775    
 0.15824     0.16265     0.17556     0.19419     0.20974     0.21369     0.20337     0.18296     0.16016     0.14154    
 0.12983     0.12462     0.12558     0.13507     0.15671     0.19040     0.22821     0.25585     0.25955     0.23358    
 0.18375     0.12503     0.74684E-01 0.44150E-01 0.34123E-01 0.36134E-01 0.39500E-01 0.38257E-01 0.33086E-01 0.28177E-01
 0.26951E-01 0.29967E-01 0.35359E-01 0.40536E-01 0.44056E-01 0.46615E-01 0.50998E-01 0.55936E-01 0.61339E-01 0.66352E-01
 0.71022E-01 0.77058E-01 0.86953E-01 0.10191     0.12019     0.13728     0.14847     0.15231     0.15230     0.15483    
 0.16423     0.17892     0.19214     0.19662     0.18937     0.17296     0.15317     0.13529     0.12185     0.11304    
 0.10910     0.11221     0.12532     0.14843     0.17533     0.19474     0.19582     0.17448     0.13597     0.92372E-01
 0.56706E-01 0.36752E-01 0.32028E-01 0.35473E-01 0.38729E-01 0.37316E-01 0.32160E-01 0.27158E-01 0.25542E-01 0.27961E-01
 0.32920E-01 0.38350E-01 0.42984E-01 0.46894E-01 0.51681E-01 0.55570E-01 0.58855E-01 0.61921E-01 0.65764E-01 0.72094E-01
 0.82650E-01 0.97798E-01 0.11546     0.13154     0.14213     0.14611     0.14625     0.14751     0.15351     0.16369    
 0.17342     0.17715     0.17204     0.15934     0.14293     0.12658     0.11232     0.10076     0.92710E-01 0.90146E-01
 0.95189E-01 0.10763     0.12306     0.13380     0.13266     0.11714     0.91239E-01 0.63394E-01 0.42133E-01 0.31892E-01
 0.31393E-01 0.35273E-01 0.37773E-01 0.36091E-01 0.31292E-01 0.26565E-01 0.24608E-01 0.26187E-01 0.30445E-01 0.36004E-01
 0.41757E-01 0.47068E-01 0.51490E-01 0.54515E-01 0.56019E-01 0.57466E-01 0.60743E-01 0.67539E-01 0.78718E-01 0.93663E-01
 0.11001     0.12436     0.13400     0.13841     0.13963     0.14092     0.14464     0.15063     0.15621     0.15788    
 0.15353     0.14359     0.13034     0.11620     0.10261     0.90310E-01 0.80309E-01 0.74183E-01 0.73245E-01 0.77145E-01
 0.83123E-01 0.86760E-01 0.84133E-01 0.74128E-01 0.59307E-01 0.44559E-01 0.34375E-01 0.30555E-01 0.31697E-01 0.34485E-01
 0.35757E-01 0.34123E-01 0.30347E-01 0.26456E-01 0.24364E-01 0.24985E-01 0.28263E-01 0.33603E-01 0.40084E-01 0.46468E-01
 0.49615E-01 0.51999E-01 0.52298E-01 0.52780E-01 0.55971E-01 0.63414E-01 0.75057E-01 0.89266E-01 0.10344     0.11512    
 0.12313     0.12793     0.13097     0.13369     0.13673     0.13974     0.14152     0.14057     0.13596     0.12786    
 0.11740     0.10587     0.94239E-01 0.83194E-01 0.73557E-01 0.66277E-01 0.61980E-01 0.60390E-01 0.60111E-01 0.59087E-01
 0.55678E-01 0.49710E-01 0.42628E-01 0.36497E-01 0.32677E-01 0.31243E-01 0.31371E-01 0.31993E-01 0.32164E-01 0.31252E-01
 0.29199E-01 0.26634E-01 0.24623E-01 0.24229E-01 0.26220E-01 0.30843E-01 0.37460E-01 0.44399E-01 0.45873E-01 0.47760E-01
 0.47412E-01 0.47665E-01 0.51332E-01 0.59588E-01 0.71446E-01 0.84361E-01 0.95623E-01 0.10385     0.10956     0.11435    
 0.11932     0.12426     0.12808     0.12979     0.12903     0.12594     0.12082     0.11408     0.10610     0.97273E-01
 0.88086E-01 0.79175E-01 0.71167E-01 0.64431E-01 0.58999E-01 0.54649E-01 0.50954E-01 0.47388E-01 0.43673E-01 0.40097E-01
 0.37250E-01 0.35265E-01 0.33542E-01 0.31453E-01 0.29214E-01 0.27715E-01 0.27465E-01 0.27915E-01 0.27949E-01 0.26893E-01
 0.25048E-01 0.23576E-01 0.24010E-01 0.27471E-01 0.33701E-01 0.40720E-01 0.40983E-01 0.42479E-01 0.41892E-01 0.42411E-01
 0.46845E-01 0.55842E-01 0.67567E-01 0.78817E-01 0.86958E-01 0.91621E-01 0.94808E-01 0.99107E-01 0.10546     0.11248    
 0.11773     0.11954     0.11784     0.11372     0.10848     0.10293     0.97085E-01 0.90611E-01 0.83503E-01 0.76360E-01
 0.69890E-01 0.64243E-01 0.59001E-01 0.53767E-01 0.48584E-01 0.43860E-01 0.40107E-01 0.37713E-01 0.36542E-01 0.35596E-01
 0.33474E-01 0.29667E-01 0.25384E-01 0.22718E-01 0.22806E-01 0.24847E-01 0.26841E-01 0.27126E-01 0.25396E-01 0.22860E-01
 0.21698E-01 0.23820E-01 0.29347E-01 0.36095E-01 0.36106E-01 0.37354E-01 0.36790E-01 0.37704E-01 0.42736E-01 0.52042E-01
 0.63208E-01 0.72732E-01 0.78227E-01 0.80070E-01 0.81166E-01 0.84693E-01 0.91560E-01 0.99778E-01 0.10615     0.10855    
 0.10696     0.10288     0.98101E-01 0.93643E-01 0.89365E-01 0.84489E-01 0.78636E-01 0.72368E-01 0.66633E-01 0.61735E-01
 0.57098E-01 0.52045E-01 0.46635E-01 0.41666E-01 0.38038E-01 0.36087E-01 0.35220E-01 0.34022E-01 0.31080E-01 0.26256E-01
 0.21247E-01 0.18511E-01 0.19308E-01 0.22646E-01 0.26039E-01 0.27222E-01 0.25504E-01 0.22147E-01 0.19750E-01 0.20707E-01
 0.25396E-01 0.31600E-01 0.31995E-01 0.33149E-01 0.32791E-01 0.34035E-01 0.39253E-01 0.48274E-01 0.58466E-01 0.66424E-01
 0.70136E-01 0.70383E-01 0.70304E-01 0.73142E-01 0.79759E-01 0.88011E-01 0.94497E-01 0.97011E-01 0.95646E-01 0.92088E-01
 0.88144E-01 0.84664E-01 0.81320E-01 0.77206E-01 0.71850E-01 0.65799E-01 0.60156E-01 0.55498E-01 0.51379E-01 0.46991E-01
 0.42159E-01 0.37592E-01 0.34218E-01 0.32372E-01 0.31441E-01 0.30124E-01 0.27245E-01 0.22790E-01 0.18345E-01 0.16196E-01
 0.17566E-01 0.21496E-01 0.25417E-01 0.26885E-01 0.25115E-01 0.21427E-01 0.18490E-01 0.18712E-01 0.22541E-01 0.27966E-01
 0.28540E-01 0.29697E-01 0.29721E-01 0.31276E-01 0.36342E-01 0.44569E-01 0.53469E-01 0.60066E-01 0.62820E-01 0.62655E-01
 0.62431E-01 0.64969E-01 0.70908E-01 0.78168E-01 0.83582E-01 0.85262E-01 0.83623E-01 0.80481E-01 0.77414E-01 0.74813E-01
 0.72029E-01 0.68167E-01 0.62917E-01 0.56917E-01 0.51309E-01 0.46814E-01 0.43176E-01 0.39599E-01 0.35669E-01 0.31789E-01
 0.28761E-01 0.27042E-01 0.26303E-01 0.25549E-01 0.23728E-01 0.20629E-01 0.17396E-01 0.15931E-01 0.17382E-01 0.20990E-01
 0.24469E-01 0.25626E-01 0.23849E-01 0.20420E-01 0.17688E-01 0.17650E-01 0.20666E-01 0.25113E-01 0.25083E-01 0.26308E-01
 0.26918E-01 0.28870E-01 0.33577E-01 0.40637E-01 0.48011E-01 0.53401E-01 0.55768E-01 0.56036E-01 0.56509E-01 0.59233E-01
 0.64382E-01 0.69991E-01 0.73460E-01 0.73566E-01 0.71177E-01 0.68191E-01 0.65874E-01 0.64103E-01 0.61849E-01 0.58194E-01
 0.53069E-01 0.47317E-01 0.42131E-01 0.38210E-01 0.35315E-01 0.32615E-01 0.29525E-01 0.26237E-01 0.23519E-01 0.22041E-01
 0.21797E-01 0.22005E-01 0.21591E-01 0.20041E-01 0.17997E-01 0.16903E-01 0.17783E-01 0.20210E-01 0.22519E-01 0.23084E-01
 0.21513E-01 0.18848E-01 0.16828E-01 0.16836E-01 0.19072E-01 0.22387E-01 0.21152E-01 0.22540E-01 0.23924E-01 0.26379E-01
 0.30618E-01 0.36262E-01 0.41928E-01 0.46137E-01 0.48373E-01 0.49497E-01 0.51144E-01 0.54406E-01 0.58818E-01 0.62551E-01
 0.63794E-01 0.62196E-01 0.59072E-01 0.56252E-01 0.54641E-01 0.53702E-01 0.52124E-01 0.48939E-01 0.44241E-01 0.39088E-01
 0.34754E-01 0.31865E-01 0.30034E-01 0.28268E-01 0.25833E-01 0.22859E-01 0.20221E-01 0.18836E-01 0.18950E-01 0.19920E-01
 0.20637E-01 0.20313E-01 0.19082E-01 0.17871E-01 0.17598E-01 0.18350E-01 0.19310E-01 0.19470E-01 0.18472E-01 0.16865E-01
 0.15684E-01 0.15744E-01 0.17138E-01 0.19230E-01 0.16920E-01 0.18551E-01 0.20778E-01 0.23820E-01 0.27677E-01 0.31926E-01
 0.35808E-01 0.38697E-01 0.40669E-01 0.42585E-01 0.45413E-01 0.49270E-01 0.53047E-01 0.55096E-01 0.54453E-01 0.51619E-01
 0.48234E-01 0.45910E-01 0.45150E-01 0.45128E-01 0.44405E-01 0.42008E-01 0.38098E-01 0.33821E-01 0.30491E-01 0.28681E-01
 0.27869E-01 0.26893E-01 0.24882E-01 0.21938E-01 0.19049E-01 0.17354E-01 0.17347E-01 0.18573E-01 0.19949E-01 0.20434E-01
 0.19624E-01 0.17949E-01 0.16327E-01 0.15481E-01 0.15447E-01 0.15662E-01 0.15552E-01 0.15029E-01 0.14480E-01 0.14343E-01
 0.14776E-01 0.15675E-01 0.13053E-01 0.14914E-01 0.17865E-01 0.21526E-01 0.25279E-01 0.28482E-01 0.30727E-01 0.32129E-01
 0.33438E-01 0.35650E-01 0.39207E-01 0.43413E-01 0.46685E-01 0.47577E-01 0.45813E-01 0.42500E-01 0.39424E-01 0.37945E-01
 0.38222E-01 0.39231E-01 0.39487E-01 0.38031E-01 0.35031E-01 0.31622E-01 0.29090E-01 0.27968E-01 0.27688E-01 0.27037E-01
 0.25096E-01 0.21940E-01 0.18602E-01 0.16365E-01 0.15946E-01 0.17095E-01 0.18774E-01 0.19710E-01 0.19078E-01 0.16974E-01
 0.14381E-01 0.12526E-01 0.12048E-01 0.12638E-01 0.13442E-01 0.13779E-01 0.13518E-01 0.12928E-01 0.12394E-01 0.12305E-01
 0.10274E-01 0.12255E-01 0.15642E-01 0.19736E-01 0.23497E-01 0.26012E-01 0.27002E-01 0.27078E-01 0.27505E-01 0.29436E-01
 0.33046E-01 0.37219E-01 0.40170E-01 0.40607E-01 0.38588E-01 0.35464E-01 0.33020E-01 0.32442E-01 0.33699E-01 0.35641E-01
 0.36736E-01 0.36011E-01 0.33643E-01 0.30769E-01 0.28643E-01 0.27740E-01 0.27473E-01 0.26678E-01 0.24506E-01 0.21068E-01
 0.17399E-01 0.14825E-01 0.14155E-01 0.15217E-01 0.16957E-01 0.18005E-01 0.17414E-01 0.15202E-01 0.12365E-01 0.10272E-01
 0.97810E-02 0.10725E-01 0.12134E-01 0.12980E-01 0.12794E-01 0.11778E-01 0.10545E-01 0.98269E-02 0.89984E-02 0.10959E-01
 0.14342E-01 0.18303E-01 0.21671E-01 0.23535E-01 0.23769E-01 0.23159E-01 0.23018E-01 0.24449E-01 0.27600E-01 0.31431E-01
 0.34277E-01 0.34899E-01 0.33304E-01 0.30739E-01 0.28898E-01 0.28907E-01 0.30687E-01 0.33039E-01 0.34400E-01 0.33825E-01
 0.31570E-01 0.28825E-01 0.26808E-01 0.25914E-01 0.25535E-01 0.24589E-01 0.22329E-01 0.18896E-01 0.15290E-01 0.12800E-01
 0.12196E-01 0.13237E-01 0.14814E-01 0.15625E-01 0.14918E-01 0.12852E-01 0.10360E-01 0.86102E-02 0.83468E-02 0.94516E-02
 0.11047E-01 0.12089E-01 0.12007E-01 0.10942E-01 0.95489E-02 0.86575E-02 0.91880E-02 0.10937E-01 0.13715E-01 0.16743E-01
 0.19104E-01 0.20245E-01 0.20235E-01 0.19708E-01 0.19589E-01 0.20689E-01 0.23233E-01 0.26577E-01 0.29426E-01 0.30588E-01
 0.29783E-01 0.27891E-01 0.26411E-01 0.26474E-01 0.28072E-01 0.30055E-01 0.30934E-01 0.29922E-01 0.27425E-01 0.24650E-01
 0.22697E-01 0.21870E-01 0.21607E-01 0.20939E-01 0.19141E-01 0.16250E-01 0.13145E-01 0.11034E-01 0.10615E-01 0.11553E-01
 0.12727E-01 0.13027E-01 0.12028E-01 0.10116E-01 0.81512E-02 0.69929E-02 0.70810E-02 0.82203E-02 0.96980E-02 0.10717E-01
 0.10848E-01 0.10199E-01 0.92706E-02 0.87300E-02 0.10319E-01 0.11568E-01 0.13095E-01 0.14624E-01 0.15874E-01 0.16650E-01
 0.16920E-01 0.16902E-01 0.17068E-01 0.17975E-01 0.19927E-01 0.22675E-01 0.25398E-01 0.27077E-01 0.27134E-01 0.25919E-01
 0.24575E-01 0.24228E-01 0.25064E-01 0.26149E-01 0.26208E-01 0.24667E-01 0.22031E-01 0.19384E-01 0.17608E-01 0.16942E-01
 0.16965E-01 0.16858E-01 0.15865E-01 0.13844E-01 0.11487E-01 0.98725E-02 0.95963E-02 0.10274E-01 0.10878E-01 0.10564E-01
 0.92243E-02 0.74309E-02 0.59822E-02 0.54489E-02 0.59245E-02 0.70367E-02 0.81983E-02 0.89575E-02 0.92151E-02 0.91837E-02
 0.91932E-02 0.95224E-02 0.11522E-01 0.12013E-01 0.11935E-01 0.11997E-01 0.12722E-01 0.13941E-01 0.15039E-01 0.15632E-01
 0.15912E-01 0.16409E-01 0.17558E-01 0.19443E-01 0.21711E-01 0.23616E-01 0.24375E-01 0.23783E-01 0.22522E-01 0.21640E-01
 0.21590E-01 0.21827E-01 0.21393E-01 0.19828E-01 0.17504E-01 0.15235E-01 0.13705E-01 0.13155E-01 0.13307E-01 0.13482E-01
 0.12985E-01 0.11643E-01 0.10011E-01 0.89332E-02 0.87936E-02 0.91713E-02 0.92274E-02 0.84220E-02 0.69214E-02 0.54194E-02
 0.46105E-02 0.47474E-02 0.55550E-02 0.64795E-02 0.70619E-02 0.72116E-02 0.72487E-02 0.76768E-02 0.87731E-02 0.10277E-01
 0.11991E-01 0.11749E-01 0.10325E-01 0.94325E-02 0.10257E-01 0.12493E-01 0.14862E-01 0.16303E-01 0.16618E-01 0.16303E-01
 0.16119E-01 0.16713E-01 0.18218E-01 0.20030E-01 0.21155E-01 0.21020E-01 0.19960E-01 0.18842E-01 0.18257E-01 0.18087E-01
 0.17759E-01 0.16799E-01 0.15192E-01 0.13400E-01 0.12046E-01 0.11464E-01 0.11418E-01 0.11298E-01 0.10639E-01 0.94988E-02
 0.83733E-02 0.77581E-02 0.77459E-02 0.79268E-02 0.76784E-02 0.66936E-02 0.53380E-02 0.44274E-02 0.45356E-02 0.54893E-02
 0.65435E-02 0.69949E-02 0.66307E-02 0.57974E-02 0.52578E-02 0.58460E-02 0.78274E-02 0.10381E-01 0.11510E-01 0.10883E-01
 0.88435E-02 0.75644E-02 0.85567E-02 0.11650E-01 0.15413E-01 0.18171E-01 0.18854E-01 0.17554E-01 0.15579E-01 0.14587E-01
 0.15260E-01 0.16819E-01 0.17941E-01 0.17990E-01 0.17273E-01 0.16407E-01 0.15805E-01 0.15617E-01 0.15706E-01 0.15582E-01
 0.14760E-01 0.13351E-01 0.12044E-01 0.11318E-01 0.10889E-01 0.10149E-01 0.89504E-02 0.77009E-02 0.68200E-02 0.64162E-02
 0.63895E-02 0.64866E-02 0.62672E-02 0.54455E-02 0.44451E-02 0.42592E-02 0.54330E-02 0.73175E-02 0.85744E-02 0.83392E-02
 0.67781E-02 0.48017E-02 0.35921E-02 0.41556E-02 0.66261E-02 0.97446E-02 0.10625E-01 0.99747E-02 0.79439E-02 0.66006E-02
 0.75041E-02 0.10912E-01 0.15754E-01 0.19930E-01 0.21272E-01 0.19218E-01 0.15618E-01 0.13255E-01 0.13309E-01 0.14646E-01
 0.15570E-01 0.15587E-01 0.15215E-01 0.14838E-01 0.14500E-01 0.14424E-01 0.14841E-01 0.15329E-01 0.15051E-01 0.13854E-01
 0.12514E-01 0.11645E-01 0.10897E-01 0.96440E-02 0.80009E-02 0.66224E-02 0.58061E-02 0.53602E-02 0.51657E-02 0.52284E-02
 0.52216E-02 0.47086E-02 0.40476E-02 0.44213E-02 0.64535E-02 0.91270E-02 0.10554E-01 0.97006E-02 0.70990E-02 0.42022E-02
 0.25134E-02 0.30279E-02 0.56490E-02 0.88711E-02 0.10625E-01 0.99747E-02 0.79439E-02 0.66006E-02 0.75041E-02 0.10912E-01
 0.15754E-01 0.19930E-01 0.21272E-01 0.19218E-01 0.15618E-01 0.13255E-01 0.13309E-01 0.14646E-01 0.15570E-01 0.15587E-01
 0.15215E-01 0.14838E-01 0.14500E-01 0.14424E-01 0.14841E-01 0.15329E-01 0.15051E-01 0.13854E-01 0.12514E-01 0.11645E-01
 0.10897E-01 0.96440E-02 0.80009E-02 0.66224E-02 0.58061E-02 0.53602E-02 0.51657E-02 0.52284E-02 0.52216E-02 0.47086E-02
 0.40476E-02 0.44213E-02 0.64535E-02 0.91270E-02 0.10554E-01 0.97006E-02 0.70990E-02 0.42022E-02 0.25134E-02 0.30279E-02
 0.56490E-02 0.88711E-02 0.10966E-01 0.10307E-01 0.82311E-02 0.68790E-02 0.78159E-02 0.11134E-01 0.15608E-01 0.19280E-01
 0.20392E-01 0.18624E-01 0.15617E-01 0.13735E-01 0.13991E-01 0.15402E-01 0.16411E-01 0.16451E-01 0.15943E-01 0.15355E-01
 0.14887E-01 0.14744E-01 0.15021E-01 0.15267E-01 0.14781E-01 0.13514E-01 0.12217E-01 0.11441E-01 0.10846E-01 0.98061E-02
 0.83455E-02 0.70390E-02 0.62327E-02 0.58340E-02 0.57121E-02 0.57663E-02 0.56362E-02 0.49648E-02 0.41584E-02 0.43369E-02
 0.60801E-02 0.84820E-02 0.98431E-02 0.91962E-02 0.69528E-02 0.43752E-02 0.28524E-02 0.33883E-02 0.59758E-02 0.91913E-02
 0.11633E-01 0.11081E-01 0.91252E-02 0.78627E-02 0.87736E-02 0.11679E-01 0.15178E-01 0.17717E-01 0.18399E-01 0.17380E-01
 0.15814E-01 0.15135E-01 0.15942E-01 0.17541E-01 0.18683E-01 0.18704E-01 0.17879E-01 0.16883E-01 0.16196E-01 0.15932E-01
 0.15857E-01 0.15496E-01 0.14490E-01 0.13042E-01 0.11815E-01 0.11221E-01 0.10964E-01 0.10432E-01 0.94262E-02 0.82852E-02
 0.74378E-02 0.70513E-02 0.70372E-02 0.70944E-02 0.67624E-02 0.57979E-02 0.46570E-02 0.43071E-02 0.52727E-02 0.69660E-02
 0.81537E-02 0.80168E-02 0.66692E-02 0.49202E-02 0.38601E-02 0.44473E-02 0.68406E-02 0.98733E-02 0.11899E-01 0.11776E-01