unknown system                          
   1.00000000000000     
     5.000000    0.000000    0.000000
     0.000000    5.000000    0.000000
     0.000000    0.000000    5.000000
   C    O 
     1     1
Direct
  0.380000  0.500000  0.500000
  0.620000  0.500000  0.500000
 
   48   48   48
 0.10193653639E-01 0.95955777094E-02 0.76677198212E-02 0.63334475043E-02 0.71308633305E-02
 0.10562702309E-01 0.15809385632E-01 0.20618578732E-01 0.22307729541E-01 0.19979435779E-01
 0.15717461036E-01 0.12807317036E-01 0.12637172382E-01 0.13890929458E-01 0.14702531432E-01
 0.14671944169E-01 0.14445296568E-01 0.14311404723E-01 0.14125501724E-01 0.14102357402E-01
 0.14625922459E-01 0.15321338452E-01 0.15228923556E-01 0.14093844408E-01 0.12730874606E-01
 0.11805131499E-01 0.10940148436E-01 0.95050331135E-02 0.77104241464E-02 0.62911331092E-02
 0.54782132255E-02 0.49676609336E-02 0.46682234272E-02 0.47184372566E-02 0.48293587026E-02
 0.44683039185E-02 0.39428000921E-02 0.45193586251E-02 0.68782901599E-02 0.98659658498E-02
 0.11365238412E-01 0.10263945854E-01 0.72470720782E-02 0.39983264230E-02 0.21444435853E-02
 0.26432474153E-02 0.52780363863E-02 0.84698627004E-02 0.10625335993E-01 0.99746815787E-02
 0.79438684534E-02 0.66005574095E-02 0.75041035729E-02 0.10912131204E-01 0.15754260008E-01
 0.19929773393E-01 0.21272272692E-01 0.19217532322E-01 0.15617750458E-01 0.13255075990E-01
 0.13309233234E-01 0.14646493876E-01 0.15570039651E-01 0.15587472361E-01 0.15215425228E-01
 0.14837679484E-01 0.14499994952E-01 0.14423691278E-01 0.14841099809E-01 0.15328999754E-01
 0.15051398045E-01 0.13853629928E-01 0.12514119249E-01 0.11645217714E-01 0.10896727860E-01
 0.96439924956E-02 0.80008978350E-02 0.66223510234E-02 0.58060907727E-02 0.53601755288E-02
 0.51657256362E-02 0.52284382871E-02 0.52216150862E-02 0.47086012709E-02 0.40476452853E-02
 0.44212520856E-02 0.64534941544E-02 0.91270376451E-02 0.10554034237E-01 0.97005619258E-02
 0.70990480733E-02 0.42021961840E-02 0.25133629861E-02 0.30279165030E-02 0.56489682440E-02
 0.88710522743E-02 0.11510271331E-01 0.10882808263E-01 0.88434522908E-02 0.75643905573E-02
 0.85567493818E-02 0.11650357689E-01 0.15413480802E-01 0.18171441136E-01 0.18853800667E-01
 0.17554220599E-01 0.15579364722E-01 0.14587332308E-01 0.15260149592E-01 0.16819471779E-01
 0.17940794938E-01 0.17989793451E-01 0.17273420225E-01 0.16407441284E-01 0.15804616727E-01
 0.15617487639E-01 0.15706169197E-01 0.15582201938E-01 0.14760450608E-01 0.13351009674E-01
 0.12043552703E-01 0.11317598914E-01 0.10888924299E-01 0.10148571205E-01 0.89503828924E-02
 0.77008610147E-02 0.68200097462E-02 0.64162467561E-02 0.63894824387E-02 0.64866371227E-02
 0.62672089054E-02 0.54455264172E-02 0.44450532206E-02 0.42592211295E-02 0.54330161223E-02
 0.73174599716E-02 0.85743929168E-02 0.83391602354E-02 0.67780857238E-02 0.48016743388E-02
 0.35921196012E-02 0.41555641969E-02 0.66261392807E-02 0.97446107124E-02 0.11990996643E-01
 0.11749144169E-01 0.10325097432E-01 0.94325222938E-02 0.10256620834E-01 0.12492842289E-01
 0.14861677844E-01 0.16303279560E-01 0.16618203107E-01 0.16302721971E-01 0.16119113313E-01
 0.16713075041E-01 0.18218268169E-01 0.20029894598E-01 0.21154748581E-01 0.21020253189E-01
 0.19959816206E-01 0.18842340211E-01 0.18257220689E-01 0.18086573871E-01 0.17759084680E-01
 0.16798588921E-01 0.15192088610E-01 0.13399901260E-01 0.12046430937E-01 0.11463644013E-01
 0.11417893592E-01 0.11298135194E-01 0.10638592958E-01 0.94988474848E-02 0.83733320674E-02
 0.77581454665E-02 0.77458586007E-02 0.79268179800E-02 0.76783572509E-02 0.66936056466E-02
 0.53380353300E-02 0.44274195250E-02 0.45356138715E-02 0.54892525133E-02 0.65434849959E-02
 0.69949250851E-02 0.66306748066E-02 0.57973849896E-02 0.52578344448E-02 0.58460406585E-02
 0.78274088482E-02 0.10381097881E-01 0.11521513939E-01 0.12013007525E-01 0.11935222370E-01
 0.11997368278E-01 0.12722380268E-01 0.13940732926E-01 0.15038529365E-01 0.15631553529E-01
 0.15911610273E-01 0.16408762863E-01 0.17557897781E-01 0.19443037038E-01 0.21710717480E-01
 0.23615824584E-01 0.24374730448E-01 0.23783326213E-01 0.22522332143E-01 0.21639780312E-01
 0.21589786848E-01 0.21827369237E-01 0.21393050245E-01 0.19827747733E-01 0.17504386575E-01
 0.15235380347E-01 0.13705412977E-01 0.13154813325E-01 0.13306598298E-01 0.13481657415E-01
 0.12985249537E-01 0.11643132733E-01 0.10010842191E-01 0.89332165301E-02 0.87935613958E-02
 0.91713394373E-02 0.92273830330E-02 0.84219536321E-02 0.69213729708E-02 0.54194354719E-02
 0.46105319527E-02 0.47474472020E-02 0.55550053443E-02 0.64794957461E-02 0.70618824633E-02
 0.72115711612E-02 0.72486975851E-02 0.76768315020E-02 0.87731128353E-02 0.10277023577E-01
 0.10318967990E-01 0.11567891965E-01 0.13094682273E-01 0.14623847151E-01 0.15874485977E-01
 0.16649935050E-01 0.16919968929E-01 0.16901915968E-01 0.17068413184E-01 0.17975364153E-01
 0.19927101231E-01 0.22675061871E-01 0.25397530050E-01 0.27076701287E-01 0.27134456411E-01
 0.25918672968E-01 0.24574678675E-01 0.24227791771E-01 0.25064497312E-01 0.26149495126E-01
 0.26207734069E-01 0.24666938343E-01 0.22031314506E-01 0.19383916491E-01 0.17608390036E-01
 0.16942194705E-01 0.16964865321E-01 0.16857532617E-01 0.15865229534E-01 0.13843964387E-01
 0.11487039963E-01 0.98724596736E-02 0.95962867879E-02 0.10273531770E-01 0.10877945929E-01
 0.10563874055E-01 0.92242681981E-02 0.74308501533E-02 0.59822352010E-02 0.54489019796E-02
 0.59244951963E-02 0.70367354616E-02 0.81983077845E-02 0.89575151329E-02 0.92151008935E-02
 0.91836815453E-02 0.91931657299E-02 0.95223875604E-02 0.91879960958E-02 0.10936501096E-01
 0.13715143163E-01 0.16742655716E-01 0.19104059201E-01 0.20244838740E-01 0.20234810198E-01
 0.19708053097E-01 0.19589389430E-01 0.20688959169E-01 0.23233192552E-01 0.26576802527E-01
 0.29425561007E-01 0.30587846575E-01 0.29782850906E-01 0.27890502864E-01 0.26410874980E-01
 0.26474468852E-01 0.28072422732E-01 0.30055037596E-01 0.30934117647E-01 0.29921879893E-01
 0.27425266099E-01 0.24649796968E-01 0.22696513436E-01 0.21869606111E-01 0.21607125733E-01
 0.20939225631E-01 0.19140982063E-01 0.16249699392E-01 0.13144545423E-01 0.11033705068E-01
 0.10614902520E-01 0.11552684568E-01 0.12726635788E-01 0.13026565708E-01 0.12027899310E-01
 0.10115750011E-01 0.81512411187E-02 0.69928700970E-02 0.70810345991E-02 0.82203421608E-02
 0.96979702337E-02 0.10716578916E-01 0.10848429128E-01 0.10199182850E-01 0.92705554719E-02
 0.87299652306E-02 0.89984183900E-02 0.10959240047E-01 0.14341841577E-01 0.18303323201E-01
 0.21670893366E-01 0.23534828875E-01 0.23769413366E-01 0.23158538924E-01 0.23017988219E-01
 0.24449430462E-01 0.27600000911E-01 0.31431103588E-01 0.34276636962E-01 0.34898739411E-01
 0.33304356300E-01 0.30739245958E-01 0.28898359702E-01 0.28907102027E-01 0.30686782866E-01
 0.33039116992E-01 0.34399515529E-01 0.33825105584E-01 0.31570448575E-01 0.28825199292E-01
 0.26807619258E-01 0.25913865204E-01 0.25534696224E-01 0.24588666445E-01 0.22329381207E-01
 0.18895518644E-01 0.15289955323E-01 0.12799531623E-01 0.12196031640E-01 0.13237243320E-01
 0.14813578354E-01 0.15624974528E-01 0.14917985788E-01 0.12852306961E-01 0.10359715553E-01
 0.86102344400E-02 0.83468442767E-02 0.94516017336E-02 0.11047234636E-01 0.12089491862E-01
 0.12007266853E-01 0.10941958921E-01 0.95489175063E-02 0.86575143379E-02 0.10273897236E-01
 0.12255293290E-01 0.15641800677E-01 0.19736109682E-01 0.23497261374E-01 0.26012259082E-01
 0.27001846218E-01 0.27078418696E-01 0.27505207120E-01 0.29436400384E-01 0.33045997181E-01
 0.37219163613E-01 0.40170004210E-01 0.40607160386E-01 0.38588310359E-01 0.35463594319E-01
 0.33020045131E-01 0.32442329079E-01 0.33698790242E-01 0.35641365386E-01 0.36735758237E-01
 0.36010783383E-01 0.33643027167E-01 0.30769428409E-01 0.28642799218E-01 0.27740474832E-01
 0.27472988850E-01 0.26677578278E-01 0.24506301679E-01 0.21067909560E-01 0.17399185356E-01
 0.14824655187E-01 0.14154520805E-01 0.15217078608E-01 0.16957318690E-01 0.18004937590E-01
 0.17413604625E-01 0.15201871815E-01 0.12365433786E-01 0.10271731047E-01 0.97809988060E-02
 0.10724806576E-01 0.12134335497E-01 0.12980215710E-01 0.12793715477E-01 0.11777746920E-01
 0.10545079893E-01 0.98269160011E-02 0.13053408590E-01 0.14914128299E-01 0.17864950506E-01
 0.21525551590E-01 0.25279056239E-01 0.28482377671E-01 0.30726864332E-01 0.32129452998E-01
 0.33438470468E-01 0.35649519437E-01 0.39206666624E-01 0.43413251333E-01 0.46684547666E-01
 0.47577269570E-01 0.45812554804E-01 0.42499520078E-01 0.39424218774E-01 0.37944595773E-01
 0.38222338310E-01 0.39230971347E-01 0.39487242441E-01 0.38031021637E-01 0.35030658031E-01
 0.31621528653E-01 0.29089812331E-01 0.27968437877E-01 0.27687749427E-01 0.27036833493E-01
 0.25095780841E-01 0.21939983063E-01 0.18601875407E-01 0.16365043391E-01 0.15945545747E-01
 0.17095118426E-01 0.18773559389E-01 0.19710282637E-01 0.19078448700E-01 0.16974270596E-01
 0.14380623693E-01 0.12526116100E-01 0.12048388998E-01 0.12638164263E-01 0.13441542616E-01
 0.13779112269E-01 0.13517975515E-01 0.12928009699E-01 0.12393513170E-01 0.12305232420E-01
 0.16919656803E-01 0.18551360816E-01 0.20777580456E-01 0.23819907493E-01 0.27676586652E-01
 0.31926298247E-01 0.35808489579E-01 0.38696955717E-01 0.40668680935E-01 0.42584668024E-01
 0.45413479947E-01 0.49269538037E-01 0.53047308483E-01 0.55096044121E-01 0.54452876268E-01
 0.51619302886E-01 0.48233895453E-01 0.45909771435E-01 0.45150384980E-01 0.45128127448E-01
 0.44405214864E-01 0.42008281857E-01 0.38098157624E-01 0.33821323699E-01 0.30491321665E-01
 0.28681322772E-01 0.27868669915E-01 0.26892654312E-01 0.24882483785E-01 0.21938346739E-01
 0.19049182575E-01 0.17354428323E-01 0.17346923420E-01 0.18572509194E-01 0.19949482925E-01
 0.20434433374E-01 0.19624071269E-01 0.17949223410E-01 0.16326677875E-01 0.15481163049E-01
 0.15446721319E-01 0.15662088669E-01 0.15551858906E-01 0.15029416528E-01 0.14479672724E-01
 0.14342622088E-01 0.14775696323E-01 0.15675286507E-01 0.21152349165E-01 0.22540227795E-01
 0.23923749073E-01 0.26378891225E-01 0.30618359645E-01 0.36261538887E-01 0.41927676124E-01
 0.46137469976E-01 0.48372669175E-01 0.49497197654E-01 0.51143648625E-01 0.54405834260E-01
 0.58818214777E-01 0.62550672681E-01 0.63794383406E-01 0.62195843012E-01 0.59071688553E-01
 0.56252138239E-01 0.54640854068E-01 0.53702305807E-01 0.52123637339E-01 0.48938684970E-01
 0.44241362040E-01 0.39088462808E-01 0.34753652664E-01 0.31864515189E-01 0.30033622416E-01
 0.28268099265E-01 0.25832972693E-01 0.22858940914E-01 0.20220801477E-01 0.18835780836E-01
 0.18949985368E-01 0.19920332077E-01 0.20636626677E-01 0.20313342877E-01 0.19082274806E-01
 0.17871491236E-01 0.17597577539E-01 0.18349731573E-01 0.19310092253E-01 0.19470395533E-01
 0.18471501321E-01 0.16864557768E-01 0.15684010578E-01 0.15743771844E-01 0.17138104249E-01
 0.19229587610E-01 0.25082505942E-01 0.26308189887E-01 0.26917752038E-01 0.28870466682E-01
 0.33577051102E-01 0.40636633171E-01 0.48011034950E-01 0.53400534625E-01 0.55767653952E-01
 0.56036307816E-01 0.56508537858E-01 0.59233323993E-01 0.64382125102E-01 0.69990783945E-01
 0.73460279616E-01 0.73565723697E-01 0.71177162631E-01 0.68190898415E-01 0.65873736634E-01
 0.64102616688E-01 0.61848639154E-01 0.58194330573E-01 0.53068502620E-01 0.47317114147E-01
 0.42130838325E-01 0.38210116440E-01 0.35315091747E-01 0.32615460442E-01 0.29525002601E-01
 0.26236563264E-01 0.23518542459E-01 0.22040951792E-01 0.21797315625E-01 0.22005496226E-01
 0.21591152320E-01 0.20040992507E-01 0.17996922969E-01 0.16903049055E-01 0.17782504801E-01
 0.20210220704E-01 0.22519203352E-01 0.23083711098E-01 0.21513226575E-01 0.18848365912E-01
 0.16828156869E-01 0.16836497734E-01 0.19072216005E-01 0.22386806434E-01 0.28540324530E-01
 0.29696820486E-01 0.29720645928E-01 0.31276435800E-01 0.36341724442E-01 0.44569363633E-01
 0.53469100876E-01 0.60066450418E-01 0.62819910083E-01 0.62654536773E-01 0.62430566010E-01
 0.64968680263E-01 0.70908127194E-01 0.78168036470E-01 0.83582079170E-01 0.85261737699E-01
 0.83622628898E-01 0.80481123822E-01 0.77414041280E-01 0.74812538066E-01 0.72028837847E-01
 0.68166808811E-01 0.62917313368E-01 0.56916525947E-01 0.51309393857E-01 0.46813779472E-01
 0.43175987496E-01 0.39598959608E-01 0.35668982278E-01 0.31788993740E-01 0.28761390902E-01
 0.27041540347E-01 0.26303371086E-01 0.25548954417E-01 0.23727791254E-01 0.20629253422E-01
 0.17395569064E-01 0.15930721260E-01 0.17381760850E-01 0.20989886443E-01 0.24468831039E-01
 0.25626292875E-01 0.23848590555E-01 0.20419969932E-01 0.17687577834E-01 0.17649846395E-01
 0.20666010464E-01 0.25113300208E-01 0.31995076046E-01 0.33149236949E-01 0.32790808325E-01
 0.34034550646E-01 0.39253255238E-01 0.48273894789E-01 0.58466334098E-01 0.66423878781E-01
 0.70136189174E-01 0.70382997223E-01 0.70303727189E-01 0.73142004497E-01 0.79758934429E-01
 0.88010723353E-01 0.94496658147E-01 0.97010511861E-01 0.95645996989E-01 0.92088267558E-01
 0.88144190721E-01 0.84663882656E-01 0.81319529383E-01 0.77206232871E-01 0.71850461857E-01
 0.65799177318E-01 0.60156190985E-01 0.55497773586E-01 0.51379487762E-01 0.46990555096E-01
 0.42158878673E-01 0.37591755368E-01 0.34218258989E-01 0.32372267136E-01 0.31440935180E-01
 0.30123828306E-01 0.27244757536E-01 0.22790393635E-01 0.18345115771E-01 0.16196156116E-01
 0.17566161853E-01 0.21496368908E-01 0.25417133548E-01 0.26884624142E-01 0.25115344729E-01
 0.21427062017E-01 0.18489765837E-01 0.18711510992E-01 0.22540810048E-01 0.27966348702E-01
 0.36105550037E-01 0.37354309972E-01 0.36789564795E-01 0.37703602190E-01 0.42735597003E-01
 0.52041700046E-01 0.63208197792E-01 0.72732323658E-01 0.78227411612E-01 0.80069984251E-01
 0.81165555003E-01 0.84692575951E-01 0.91559527074E-01 0.99777721571E-01 0.10614972501E+00
 0.10855275676E+00 0.10695868466E+00 0.10287689245E+00 0.98100636685E-01 0.93643321959E-01
 0.89364845040E-01 0.84489272615E-01 0.78635841846E-01 0.72368385570E-01 0.66632926359E-01
 0.61735421139E-01 0.57097970286E-01 0.52044985028E-01 0.46634566116E-01 0.41666322850E-01
 0.38038466634E-01 0.36086773005E-01 0.35220051051E-01 0.34022463848E-01 0.31080205048E-01
 0.26256149820E-01 0.21246516242E-01 0.18511215490E-01 0.19308493366E-01 0.22646463082E-01
 0.26038547572E-01 0.27221950327E-01 0.25504101588E-01 0.22146869635E-01 0.19750364118E-01
 0.20707332325E-01 0.25395828835E-01 0.31600380222E-01 0.40983324425E-01 0.42478989446E-01
 0.41891805424E-01 0.42411235954E-01 0.46845310398E-01 0.55841649982E-01 0.67567453018E-01
 0.78816671160E-01 0.86957622904E-01 0.91620794304E-01 0.94808283363E-01 0.99107488592E-01
 0.10546166167E+00 0.11248153251E+00 0.11772926297E+00 0.11954160601E+00 0.11784282601E+00
 0.11371832590E+00 0.10848375959E+00 0.10292977169E+00 0.97085195645E-01 0.90611320549E-01
 0.83502562153E-01 0.76359641247E-01 0.69890110068E-01 0.64243131676E-01 0.59001177771E-01
 0.53766610458E-01 0.48584160808E-01 0.43859863885E-01 0.40107327312E-01 0.37713357837E-01
 0.36541964764E-01 0.35595605555E-01 0.33473836116E-01 0.29667020589E-01 0.25383528225E-01
 0.22717841011E-01 0.22806439778E-01 0.24846687959E-01 0.26841001295E-01 0.27126086929E-01
 0.25395668248E-01 0.22859851877E-01 0.21697948596E-01 0.23819513066E-01 0.29347079073E-01
 0.36094711439E-01 0.45872743019E-01 0.47759667402E-01 0.47412065455E-01 0.47665465367E-01
 0.51332176550E-01 0.59588418648E-01 0.71446271472E-01 0.84360917187E-01 0.95623123766E-01
 0.10384778415E+00 0.10956019781E+00 0.11435013087E+00 0.11932299568E+00 0.12426109103E+00
 0.12807572358E+00 0.12978856412E+00 0.12903488570E+00 0.12593621884E+00 0.12082054969E+00
 0.11407788348E+00 0.10609865350E+00 0.97272797099E-01 0.88086146370E-01 0.79175008739E-01
 0.71166850881E-01 0.64430600997E-01 0.58999083011E-01 0.54649202439E-01 0.50954423019E-01
 0.47388358912E-01 0.43672751354E-01 0.40097443369E-01 0.37249884597E-01 0.35264713054E-01
 0.33541562923E-01 0.31453498381E-01 0.29213554020E-01 0.27715120824E-01 0.27464915571E-01
 0.27914588194E-01 0.27949137588E-01 0.26892921043E-01 0.25048370248E-01 0.23575892019E-01
 0.24010098054E-01 0.27470834378E-01 0.33700888902E-01 0.40719932212E-01 0.49614755066E-01
 0.51999055048E-01 0.52298095726E-01 0.52780481827E-01 0.55970814227E-01 0.63414006143E-01
 0.75056577612E-01 0.89266336505E-01 0.10344027573E+00 0.11512328183E+00 0.12313339507E+00
 0.12792691371E+00 0.13096860015E+00 0.13368747175E+00 0.13673352022E+00 0.13974443095E+00
 0.14151751458E+00 0.14056819205E+00 0.13595654956E+00 0.12786245707E+00 0.11740068033E+00
 0.10587466692E+00 0.94238535952E-01 0.83194383842E-01 0.73557000396E-01 0.66276840991E-01
 0.61980141728E-01 0.60390125329E-01 0.60110540160E-01 0.59086727984E-01 0.55677998033E-01
 0.49710095305E-01 0.42627681204E-01 0.36497301410E-01 0.32677475527E-01 0.31243313558E-01
 0.31371308984E-01 0.31993463469E-01 0.32163644011E-01 0.31252265717E-01 0.29199107141E-01
 0.26634279101E-01 0.24622867792E-01 0.24228623312E-01 0.26220496689E-01 0.30843487966E-01
 0.37459973430E-01 0.44399347528E-01 0.51490490414E-01 0.54515214387E-01 0.56019116671E-01
 0.57466054744E-01 0.60743320478E-01 0.67539200446E-01 0.78717804474E-01 0.93662953052E-01
 0.11000746425E+00 0.12436425538E+00 0.13399806770E+00 0.13840811653E+00 0.13962893992E+00
 0.14092116143E+00 0.14463950099E+00 0.15062655482E+00 0.15620899150E+00 0.15787891316E+00
 0.15352627157E+00 0.14358701967E+00 0.13034087009E+00 0.11620041650E+00 0.10260722488E+00
 0.90309616741E-01 0.80308822439E-01 0.74183277145E-01 0.73245030022E-01 0.77145465738E-01
 0.83122711244E-01 0.86759660014E-01 0.84132668523E-01 0.74128122381E-01 0.59307363053E-01
 0.44559206363E-01 0.34374809269E-01 0.30554597015E-01 0.31696555604E-01 0.34484634762E-01
 0.35756570102E-01 0.34123157910E-01 0.30346603117E-01 0.26456330077E-01 0.24364052422E-01
 0.24985452752E-01 0.28263209331E-01 0.33603071764E-01 0.40084224805E-01 0.46468230082E-01
 0.51680602026E-01 0.55569805574E-01 0.58854640553E-01 0.61921487593E-01 0.65764184349E-01
 0.72094261846E-01 0.82650041268E-01 0.97798302517E-01 0.11545696250E+00 0.13153939797E+00
 0.14212848844E+00 0.14610936739E+00 0.14624557688E+00 0.14750659053E+00 0.15351314455E+00
 0.16368855675E+00 0.17341525237E+00 0.17714932521E+00 0.17203969656E+00 0.15933912775E+00
 0.14292582973E+00 0.12658341984E+00 0.11232225149E+00 0.10075910524E+00 0.92710386519E-01
 0.90145546200E-01 0.95188784563E-01 0.10762686130E+00 0.12305710833E+00 0.13380012063E+00
 0.13265633156E+00 0.11714367859E+00 0.91238695702E-01 0.63394274656E-01 0.42133402657E-01
 0.31891593910E-01 0.31393157799E-01 0.35273208387E-01 0.37772952811E-01 0.36091034172E-01
 0.31291782413E-01 0.26564927121E-01 0.24608229560E-01 0.26187410910E-01 0.30444990860E-01
 0.36003651504E-01 0.41756565453E-01 0.47068003337E-01 0.50997978908E-01 0.55936434526E-01
 0.61339053395E-01 0.66352302777E-01 0.71021721034E-01 0.77057892156E-01 0.86952745497E-01
 0.10191376679E+00 0.12018724045E+00 0.13727862477E+00 0.14847192379E+00 0.15230724813E+00
 0.15229982199E+00 0.15483354501E+00 0.16422827596E+00 0.17891684975E+00 0.19213770561E+00
 0.19662361073E+00 0.18936874009E+00 0.17295658966E+00 0.15316990767E+00 0.13529456549E+00
 0.12185047245E+00 0.11303510364E+00 0.10910206746E+00 0.11220617980E+00 0.12532224107E+00
 0.14842978795E+00 0.17532900694E+00 0.19473547027E+00 0.19582434212E+00 0.17448469673E+00
 0.13596534106E+00 0.92371663838E-01 0.56705710689E-01 0.36752357409E-01 0.32028434650E-01
 0.35472879899E-01 0.38729268156E-01 0.37315555362E-01 0.32159650625E-01 0.27158131307E-01
 0.25541836626E-01 0.27960645772E-01 0.32920082030E-01 0.38349960612E-01 0.42984348570E-01
 0.46894054450E-01 0.50246287799E-01 0.56198469653E-01 0.63600228016E-01 0.70470758416E-01
 0.76054731744E-01 0.82024864018E-01 0.91369317931E-01 0.10591813488E+00 0.12432042805E+00
 0.14198908086E+00 0.15370437928E+00 0.15774983908E+00 0.15824454379E+00 0.16264636562E+00
 0.17556198098E+00 0.19418714892E+00 0.20974337525E+00 0.21369287754E+00 0.20336945976E+00
 0.18296495991E+00 0.16016242042E+00 0.14153690843E+00 0.12982903467E+00 0.12462094255E+00
 0.12558354721E+00 0.13506534932E+00 0.15670636762E+00 0.19039802394E+00 0.22820667861E+00
 0.25585068220E+00 0.25955062502E+00 0.23358390986E+00 0.18375198778E+00 0.12503029484E+00
 0.74684448909E-01 0.44150074479E-01 0.34123490233E-01 0.36134112777E-01 0.39499836684E-01
 0.38256739730E-01 0.33085888693E-01 0.28176933310E-01 0.26950506295E-01 0.29967140593E-01
 0.35359004245E-01 0.40536445259E-01 0.44056198659E-01 0.46614711453E-01 0.49801522602E-01
 0.56467103023E-01 0.65275980393E-01 0.73496935562E-01 0.79854333747E-01 0.85938290345E-01
 0.94944039728E-01 0.10907275831E+00 0.12736436096E+00 0.14533946409E+00 0.15749448606E+00
 0.16188470650E+00 0.16298635220E+00 0.16895451946E+00 0.18449151905E+00 0.20577591115E+00
 0.22254307146E+00 0.22547363094E+00 0.21239332144E+00 0.18887439740E+00 0.16403483567E+00
 0.14524714410E+00 0.13518954489E+00 0.13289598904E+00 0.13771616733E+00 0.15224985014E+00
 0.18048556740E+00 0.22195665075E+00 0.26742734770E+00 0.30083773408E+00 0.30671252504E+00
 0.27811159255E+00 0.22069838046E+00 0.15107802750E+00 0.89668257310E-01 0.50920077283E-01
 0.36604589890E-01 0.37203691034E-01 0.40330887273E-01 0.39052809702E-01 0.33918446539E-01
 0.29186845605E-01 0.28238006684E-01 0.31561903094E-01 0.37152093810E-01 0.42125202060E-01
 0.44877367101E-01 0.46497771009E-01 0.49670745505E-01 0.56588714499E-01 0.65900454007E-01
 0.74618705425E-01 0.81289154574E-01 0.87454742927E-01 0.96350825171E-01 0.11030006045E+00
 0.12851168493E+00 0.14658365295E+00 0.15891920725E+00 0.16347278203E+00 0.16483285185E+00
 0.17140113303E+00 0.18790337560E+00 0.21012582373E+00 0.22724962183E+00 0.22968931490E+00
 0.21549820748E+00 0.19080104575E+00 0.16525339520E+00 0.14648380122E+00 0.13709343005E+00
 0.13589808491E+00 0.14216628397E+00 0.15862368695E+00 0.18935200323E+00 0.23367694212E+00
 0.28187382232E+00 0.31732983213E+00 0.32405856859E+00 0.29466192409E+00 0.23462348507E+00
 0.16104048465E+00 0.95504474845E-01 0.53659313969E-01 0.37713904307E-01 0.37745683719E-01
 0.40727138912E-01 0.39393526926E-01 0.34267335604E-01 0.29612854442E-01 0.28759510596E-01
 0.32167833846E-01 0.37807514091E-01 0.42705897836E-01 0.45192603519E-01 0.46483755988E-01
 0.49801522602E-01 0.56467103023E-01 0.65275980393E-01 0.73496935562E-01 0.79854333747E-01
 0.85938290345E-01 0.94944039728E-01 0.10907275831E+00 0.12736436096E+00 0.14533946409E+00
 0.15749448606E+00 0.16188470650E+00 0.16298635220E+00 0.16895451946E+00 0.18449151905E+00
 0.20577591115E+00 0.22254307146E+00 0.22547363094E+00 0.21239332144E+00 0.18887439740E+00
 0.16403483567E+00 0.14524714410E+00 0.13518954489E+00 0.13289598904E+00 0.13771616733E+00
 0.15224985014E+00 0.18048556740E+00 0.22195665075E+00 0.26742734770E+00 0.30083773408E+00
 0.30671252504E+00 0.27811159255E+00 0.22069838046E+00 0.15107802750E+00 0.89668257310E-01
 0.50920077283E-01 0.36604589890E-01 0.37203691034E-01 0.40330887273E-01 0.39052809702E-01
 0.33918446539E-01 0.29186845605E-01 0.28238006684E-01 0.31561903094E-01 0.37152093810E-01
 0.42125202060E-01 0.44877367101E-01 0.46497771009E-01 0.50246287799E-01 0.56198469653E-01
 0.63600228016E-01 0.70470758416E-01 0.76054731744E-01 0.82024864018E-01 0.91369317931E-01
 0.10591813488E+00 0.12432042805E+00 0.14198908086E+00 0.15370437928E+00 0.15774983908E+00
 0.15824454379E+00 0.16264636562E+00 0.17556198098E+00 0.19418714892E+00 0.20974337525E+00
 0.21369287754E+00 0.20336945976E+00 0.18296495991E+00 0.16016242042E+00 0.14153690843E+00
 0.12982903467E+00 0.12462094255E+00 0.12558354721E+00 0.13506534932E+00 0.15670636762E+00
 0.19039802394E+00 0.22820667861E+00 0.25585068220E+00 0.25955062502E+00 0.23358390986E+00
 0.18375198778E+00 0.12503029484E+00 0.74684448909E-01 0.44150074479E-01 0.34123490233E-01
 0.36134112777E-01 0.39499836684E-01 0.38256739730E-01 0.33085888693E-01 0.28176933310E-01
 0.26950506295E-01 0.29967140593E-01 0.35359004245E-01 0.40536445259E-01 0.44056198659E-01
 0.46614711453E-01 0.50997978908E-01 0.55936434526E-01 0.61339053395E-01 0.66352302777E-01
 0.71021721034E-01 0.77057892156E-01 0.86952745497E-01 0.10191376679E+00 0.12018724045E+00
 0.13727862477E+00 0.14847192379E+00 0.15230724813E+00 0.15229982199E+00 0.15483354501E+00
 0.16422827596E+00 0.17891684975E+00 0.19213770561E+00 0.19662361073E+00 0.18936874009E+00
 0.17295658966E+00 0.15316990767E+00 0.13529456549E+00 0.12185047245E+00 0.11303510364E+00
 0.10910206746E+00 0.11220617980E+00 0.12532224107E+00 0.14842978795E+00 0.17532900694E+00
 0.19473547027E+00 0.19582434212E+00 0.17448469673E+00 0.13596534106E+00 0.92371663838E-01
 0.56705710689E-01 0.36752357409E-01 0.32028434650E-01 0.35472879899E-01 0.38729268156E-01
 0.37315555362E-01 0.32159650625E-01 0.27158131307E-01 0.25541836626E-01 0.27960645772E-01
 0.32920082030E-01 0.38349960612E-01 0.42984348570E-01 0.46894054450E-01 0.51680602026E-01
 0.55569805574E-01 0.58854640553E-01 0.61921487593E-01 0.65764184349E-01 0.72094261846E-01
 0.82650041268E-01 0.97798302517E-01 0.11545696250E+00 0.13153939797E+00 0.14212848844E+00
 0.14610936739E+00 0.14624557688E+00 0.14750659053E+00 0.15351314455E+00 0.16368855675E+00
 0.17341525237E+00 0.17714932521E+00 0.17203969656E+00 0.15933912775E+00 0.14292582973E+00
 0.12658341984E+00 0.11232225149E+00 0.10075910524E+00 0.92710386519E-01 0.90145546200E-01
 0.95188784563E-01 0.10762686130E+00 0.12305710833E+00 0.13380012063E+00 0.13265633156E+00
 0.11714367859E+00 0.91238695702E-01 0.63394274656E-01 0.42133402657E-01 0.31891593910E-01
 0.31393157799E-01 0.35273208387E-01 0.37772952811E-01 0.36091034172E-01 0.31291782413E-01
 0.26564927121E-01 0.24608229560E-01 0.26187410910E-01 0.30444990860E-01 0.36003651504E-01
 0.41756565453E-01 0.47068003337E-01 0.51490490414E-01 0.54515214387E-01 0.56019116671E-01
 0.57466054744E-01 0.60743320478E-01 0.67539200446E-01 0.78717804474E-01 0.93662953052E-01
 0.11000746425E+00 0.12436425538E+00 0.13399806770E+00 0.13840811653E+00 0.13962893992E+00
 0.14092116143E+00 0.14463950099E+00 0.15062655482E+00 0.15620899149E+00 0.15787891316E+00
 0.15352627157E+00 0.14358701967E+00 0.13034087009E+00 0.11620041650E+00 0.10260722488E+00
 0.90309616741E-01 0.80308822439E-01 0.74183277145E-01 0.73245030022E-01 0.77145465738E-01
 0.83122711244E-01 0.86759660014E-01 0.84132668523E-01 0.74128122381E-01 0.59307363053E-01
 0.44559206363E-01 0.34374809269E-01 0.30554597015E-01 0.31696555604E-01 0.34484634762E-01
 0.35756570102E-01 0.34123157910E-01 0.30346603117E-01 0.26456330077E-01 0.24364052422E-01
 0.24985452752E-01 0.28263209331E-01 0.33603071764E-01 0.40084224805E-01 0.46468230082E-01
 0.49614755066E-01 0.51999055048E-01 0.52298095726E-01 0.52780481827E-01 0.55970814227E-01
 0.63414006143E-01 0.75056577612E-01 0.89266336505E-01 0.10344027573E+00 0.11512328183E+00
 0.12313339507E+00 0.12792691371E+00 0.13096860015E+00 0.13368747175E+00 0.13673352022E+00
 0.13974443095E+00 0.14151751458E+00 0.14056819205E+00 0.13595654956E+00 0.12786245707E+00
 0.11740068033E+00 0.10587466692E+00 0.94238535952E-01 0.83194383842E-01 0.73557000396E-01
 0.66276840991E-01 0.61980141729E-01 0.60390125329E-01 0.60110540160E-01 0.59086727983E-01
 0.55677998033E-01 0.49710095305E-01 0.42627681204E-01 0.36497301410E-01 0.32677475527E-01
 0.31243313558E-01 0.31371308984E-01 0.31993463469E-01 0.32163644011E-01 0.31252265717E-01
 0.29199107141E-01 0.26634279101E-01 0.24622867792E-01 0.24228623312E-01 0.26220496689E-01
 0.30843487966E-01 0.37459973430E-01 0.44399347528E-01 0.45872743019E-01 0.47759667402E-01
 0.47412065455E-01 0.47665465367E-01 0.51332176550E-01 0.59588418648E-01 0.71446271472E-01
 0.84360917187E-01 0.95623123766E-01 0.10384778415E+00 0.10956019781E+00 0.11435013087E+00
 0.11932299568E+00 0.12426109103E+00 0.12807572358E+00 0.12978856412E+00 0.12903488570E+00
 0.12593621884E+00 0.12082054969E+00 0.11407788348E+00 0.10609865350E+00 0.97272797099E-01
 0.88086146370E-01 0.79175008739E-01 0.71166850881E-01 0.64430600997E-01 0.58999083011E-01
 0.54649202439E-01 0.50954423019E-01 0.47388358912E-01 0.43672751354E-01 0.40097443369E-01
 0.37249884597E-01 0.35264713054E-01 0.33541562923E-01 0.31453498381E-01 0.29213554020E-01
 0.27715120824E-01 0.27464915571E-01 0.27914588194E-01 0.27949137588E-01 0.26892921043E-01
 0.25048370248E-01 0.23575892019E-01 0.24010098054E-01 0.27470834378E-01 0.33700888902E-01
 0.40719932212E-01 0.40983324425E-01 0.42478989446E-01 0.41891805424E-01 0.42411235954E-01
 0.46845310398E-01 0.55841649982E-01 0.67567453018E-01 0.78816671160E-01 0.86957622904E-01
 0.91620794304E-01 0.94808283363E-01 0.99107488592E-01 0.10546166167E+00 0.11248153251E+00
 0.11772926297E+00 0.11954160601E+00 0.11784282601E+00 0.11371832590E+00 0.10848375959E+00
 0.10292977169E+00 0.97085195645E-01 0.90611320549E-01 0.83502562153E-01 0.76359641247E-01
 0.69890110068E-01 0.64243131676E-01 0.59001177771E-01 0.53766610458E-01 0.48584160808E-01
 0.43859863885E-01 0.40107327312E-01 0.37713357836E-01 0.36541964764E-01 0.35595605555E-01
 0.33473836116E-01 0.29667020589E-01 0.25383528225E-01 0.22717841011E-01 0.22806439778E-01
 0.24846687959E-01 0.26841001295E-01 0.27126086929E-01 0.25395668248E-01 0.22859851877E-01
 0.21697948596E-01 0.23819513066E-01 0.29347079073E-01 0.36094711439E-01 0.36105550037E-01
 0.37354309972E-01 0.36789564795E-01 0.37703602190E-01 0.42735597003E-01 0.52041700046E-01
 0.63208197792E-01 0.72732323658E-01 0.78227411612E-01 0.80069984251E-01 0.81165555003E-01
 0.84692575951E-01 0.91559527074E-01 0.99777721571E-01 0.10614972501E+00 0.10855275676E+00
 0.10695868466E+00 0.10287689245E+00 0.98100636685E-01 0.93643321959E-01 0.89364845040E-01
 0.84489272615E-01 0.78635841846E-01 0.72368385570E-01 0.66632926359E-01 0.61735421139E-01
 0.57097970286E-01 0.52044985028E-01 0.46634566116E-01 0.41666322851E-01 0.38038466634E-01
 0.36086773005E-01 0.35220051051E-01 0.34022463848E-01 0.31080205048E-01 0.26256149820E-01
 0.21246516242E-01 0.18511215490E-01 0.19308493366E-01 0.22646463082E-01 0.26038547572E-01
 0.27221950327E-01 0.25504101588E-01 0.22146869635E-01 0.19750364118E-01 0.20707332325E-01