Loading python/3.10.5
  Loading requirement: tcl/8.6.10
Loading python/3.10.5
  Loading requirement: tcl/8.6.10
 running on   24 total cores
 distrk:  each k-point on   24 cores,    1 groups
 distr:  one band on    1 cores,   24 groups
 using from now: INCAR     
 vasp.5.4.1 05Feb16 (build Apr 25 2018 11:37:45) complex                        
  
 POSCAR found type information on POSCAR  C  O 
 POSCAR found :  2 types and       2 ions

 ----------------------------------------------------------------------------- 
|                                                                             |
|           W    W    AA    RRRRR   N    N  II  N    N   GGGG   !!!           |
|           W    W   A  A   R    R  NN   N  II  NN   N  G    G  !!!           |
|           W    W  A    A  R    R  N N  N  II  N N  N  G       !!!           |
|           W WW W  AAAAAA  RRRRR   N  N N  II  N  N N  G  GGG   !            |
|           WW  WW  A    A  R   R   N   NN  II  N   NN  G    G                |
|           W    W  A    A  R    R  N    N  II  N    N   GGGG   !!!           |
|                                                                             |
|      For optimal performance we recommend to set                            |
|        NCORE= 4 - approx SQRT( number of cores)                             |
|      NCORE specifies how many cores store one orbital (NPAR=cpu/NCORE).     |
|      This setting can  greatly improve the performance of VASP for DFT.     |
|      The default, NPAR=number of cores might be grossly inefficient         |
|      on modern multi-core architectures or massively parallel machines.     |
|      Do your own testing !!!!                                               |
|      Unfortunately you need to use the default for GW and RPA calculations. |
|      (for HF NCORE is supported but not extensively tested yet)             |
|                                                                             |
 ----------------------------------------------------------------------------- 

 LDA part: xc-table for Pade appr. of Perdew
 POSCAR found type information on POSCAR  C  O 
 POSCAR found :  2 types and       2 ions
 POSCAR, INCAR and KPOINTS ok, starting setup
 WARNING: small aliasing (wrap around) errors must be expected
 FFT: planning ...
 WAVECAR not read
 entering main loop
       N       E                     dE             d eps       ncg     rms          rms(c)
DAV:   1     0.178403951009E+02    0.17840E+02   -0.40366E+03    48   0.225E+02
DAV:   2    -0.152137241486E+02   -0.33054E+02   -0.33054E+02    72   0.576E+01
DAV:   3    -0.154298764822E+02   -0.21615E+00   -0.21615E+00    48   0.643E+00
DAV:   4    -0.154304975203E+02   -0.62104E-03   -0.62104E-03    72   0.358E-01
DAV:   5    -0.154304976098E+02   -0.89485E-07   -0.89402E-07    48   0.423E-03    0.608E+00
DAV:   6    -0.149898088685E+02    0.44069E+00   -0.38982E+00    72   0.468E+00    0.351E+00
DAV:   7    -0.148865884408E+02    0.10322E+00   -0.72038E-01    72   0.191E+00    0.194E+00
DAV:   8    -0.148488434266E+02    0.37745E-01   -0.12146E-01    72   0.964E-01    0.352E-01
DAV:   9    -0.148483039998E+02    0.53943E-03   -0.31475E-03    48   0.186E-01    0.719E-02
DAV:  10    -0.148485174876E+02   -0.21349E-03   -0.35406E-04    48   0.636E-02    0.348E-02
DAV:  11    -0.148486860548E+02   -0.16857E-03   -0.15554E-04    48   0.330E-02    0.118E-02
DAV:  12    -0.148486888454E+02   -0.27906E-05   -0.16545E-05    72   0.112E-02
   1 F= -.14848689E+02 E0= -.14852554E+02  d E =0.115958E-01
 writing wavefunctions
Loading python/3.10.5
  Loading requirement: tcl/8.6.10
