   2   2   0   0
  0.6250000E+02  0.5000000E-09  0.5000000E-09  0.5000000E-09  0.5000000E-15
  1.000000000000000E-004
  CAR 
 unknown system                          
     14.81289981    -29.32424968  301     -8.01089891      1.00000000
    -29.324  0.0000E+00  0.0000E+00
    -29.177  0.0000E+00  0.0000E+00
    -29.030 -0.4948E-30 -0.7279E-31
    -28.883 -0.7758E-25 -0.1141E-25
    -28.736 -0.4085E-20 -0.6010E-21
    -28.589 -0.7209E-16 -0.1061E-16
    -28.442 -0.4117E-12 -0.6058E-13
    -28.294 -0.8010E-09 -0.1179E-09
    -28.147 -0.5122E-06 -0.7547E-07
    -28.000 -0.1060E-03 -0.1567E-04
    -27.853 -0.6847E-02 -0.1023E-02
    -27.706 -0.1246E+00 -0.1935E-01
    -27.559 -0.3495E+00 -0.7078E-01
    -27.412  0.2492E+01  0.2958E+00
    -27.265  0.7745E+01  0.1435E+01
    -27.117  0.4184E+01  0.2051E+01
    -26.970 -0.1163E+00  0.2034E+01
    -26.823 -0.2120E+00  0.2003E+01
    -26.676 -0.1726E-01  0.2000E+01
    -26.529 -0.3716E-03  0.2000E+01
    -26.382 -0.2455E-05  0.2000E+01
    -26.235 -0.5211E-08  0.2000E+01
    -26.088 -0.3625E-11  0.2000E+01
    -25.940  0.0000E+00  0.2000E+01
    -25.793  0.0000E+00  0.2000E+01
    -25.646  0.0000E+00  0.2000E+01
    -25.499  0.0000E+00  0.2000E+01
    -25.352  0.0000E+00  0.2000E+01
    -25.205  0.0000E+00  0.2000E+01
    -25.058  0.0000E+00  0.2000E+01
    -24.911  0.0000E+00  0.2000E+01
    -24.763  0.0000E+00  0.2000E+01
    -24.616  0.0000E+00  0.2000E+01
    -24.469  0.0000E+00  0.2000E+01
    -24.322  0.0000E+00  0.2000E+01
    -24.175  0.0000E+00  0.2000E+01
    -24.028  0.0000E+00  0.2000E+01
    -23.881  0.0000E+00  0.2000E+01
    -23.734  0.0000E+00  0.2000E+01
    -23.586  0.0000E+00  0.2000E+01
    -23.439  0.0000E+00  0.2000E+01
    -23.292  0.0000E+00  0.2000E+01
    -23.145  0.0000E+00  0.2000E+01
    -22.998  0.0000E+00  0.2000E+01
    -22.851  0.0000E+00  0.2000E+01
    -22.704  0.0000E+00  0.2000E+01
    -22.557  0.0000E+00  0.2000E+01
    -22.409  0.0000E+00  0.2000E+01
    -22.262  0.0000E+00  0.2000E+01
    -22.115  0.0000E+00  0.2000E+01
    -21.968  0.0000E+00  0.2000E+01
    -21.821  0.0000E+00  0.2000E+01
    -21.674  0.0000E+00  0.2000E+01
    -21.527  0.0000E+00  0.2000E+01
    -21.380  0.0000E+00  0.2000E+01
    -21.232  0.0000E+00  0.2000E+01
    -21.085  0.0000E+00  0.2000E+01
    -20.938  0.0000E+00  0.2000E+01
    -20.791  0.0000E+00  0.2000E+01
    -20.644  0.0000E+00  0.2000E+01
    -20.497  0.0000E+00  0.2000E+01
    -20.350  0.0000E+00  0.2000E+01
    -20.203  0.0000E+00  0.2000E+01
    -20.055  0.0000E+00  0.2000E+01
    -19.908  0.0000E+00  0.2000E+01
    -19.761  0.0000E+00  0.2000E+01
    -19.614  0.0000E+00  0.2000E+01
    -19.467  0.0000E+00  0.2000E+01
    -19.320  0.0000E+00  0.2000E+01
    -19.173  0.0000E+00  0.2000E+01
    -19.026  0.0000E+00  0.2000E+01
    -18.878  0.0000E+00  0.2000E+01
    -18.731  0.0000E+00  0.2000E+01
    -18.584  0.0000E+00  0.2000E+01
    -18.437  0.0000E+00  0.2000E+01
    -18.290  0.0000E+00  0.2000E+01
    -18.143  0.0000E+00  0.2000E+01
    -17.996  0.0000E+00  0.2000E+01
    -17.849  0.0000E+00  0.2000E+01
    -17.701  0.0000E+00  0.2000E+01
    -17.554  0.0000E+00  0.2000E+01
    -17.407  0.0000E+00  0.2000E+01
    -17.260  0.0000E+00  0.2000E+01
    -17.113  0.0000E+00  0.2000E+01
    -16.966  0.0000E+00  0.2000E+01
    -16.819  0.0000E+00  0.2000E+01
    -16.672  0.0000E+00  0.2000E+01
    -16.524  0.0000E+00  0.2000E+01
    -16.377  0.0000E+00  0.2000E+01
    -16.230  0.0000E+00  0.2000E+01
    -16.083  0.0000E+00  0.2000E+01
    -15.936  0.0000E+00  0.2000E+01
    -15.789  0.0000E+00  0.2000E+01
    -15.642  0.0000E+00  0.2000E+01
    -15.495  0.0000E+00  0.2000E+01
    -15.347  0.0000E+00  0.2000E+01
    -15.200  0.0000E+00  0.2000E+01
    -15.053  0.0000E+00  0.2000E+01
    -14.906  0.0000E+00  0.2000E+01
    -14.759  0.0000E+00  0.2000E+01
    -14.612 -0.8653E-30  0.2000E+01
    -14.465 -0.1292E-24  0.2000E+01
    -14.318 -0.6479E-20  0.2000E+01
    -14.170 -0.1089E-15  0.2000E+01
    -14.023 -0.5919E-12  0.2000E+01
    -13.876 -0.1096E-08  0.2000E+01
    -13.729 -0.6663E-06  0.2000E+01
    -13.582 -0.1310E-03  0.2000E+01
    -13.435 -0.8022E-02  0.1999E+01
    -13.288 -0.1372E+00  0.1979E+01
    -13.141 -0.3301E+00  0.1930E+01
    -12.994  0.2753E+01  0.2335E+01
    -12.846  0.7809E+01  0.3484E+01
    -12.699  0.3895E+01  0.4057E+01
    -12.552 -0.1758E+00  0.4031E+01
    -12.405 -0.1961E+00  0.4002E+01
    -12.258 -0.1493E-01  0.4000E+01
    -12.111 -0.3042E-03  0.4000E+01
    -11.964 -0.1909E-05  0.4000E+01
    -11.817 -0.3853E-08  0.4000E+01
    -11.669 -0.2554E-11  0.4000E+01
    -11.522 -0.3298E-20  0.4000E+01
    -11.375 -0.6406E-16  0.4000E+01
    -11.228 -0.4039E-12  0.4000E+01
    -11.081 -0.8635E-09  0.4000E+01
    -10.934 -0.6088E-06  0.4000E+01
    -10.787 -0.1392E-03  0.4000E+01
    -10.640 -0.9981E-02  0.3999E+01
    -10.492 -0.2047E+00  0.3968E+01
    -10.345 -0.7418E+00  0.3859E+01
    -10.198  0.4018E+01  0.4450E+01
    -10.051  0.1510E+02  0.6672E+01
     -9.904  0.9502E+01  0.8070E+01
     -9.757  0.5768E-01  0.8079E+01
     -9.610 -0.4883E+00  0.8007E+01
     -9.463 -0.4552E-01  0.8000E+01
     -9.315 -0.1091E-02  0.8000E+01
     -9.168 -0.7971E-05  0.8000E+01
     -9.021 -0.3259E-06  0.8000E+01
     -8.874 -0.7011E-04  0.8000E+01
     -8.727 -0.5018E-02  0.7999E+01
     -8.580 -0.1027E+00  0.7984E+01
     -8.433 -0.3707E+00  0.7930E+01
     -8.286  0.2017E+01  0.8226E+01
     -8.138  0.7555E+01  0.9338E+01
     -7.991  0.4741E+01  0.1004E+02
     -7.844  0.2599E-01  0.1004E+02
     -7.697 -0.2436E+00  0.1000E+02
     -7.550 -0.2265E-01  0.1000E+02
     -7.403 -0.5419E-03  0.1000E+02
     -7.256 -0.3952E-05  0.1000E+02
     -7.109 -0.9241E-08  0.1000E+02
     -6.961 -0.7075E-11  0.1000E+02
     -6.814 -0.3018E-14  0.1000E+02
     -6.667  0.0000E+00  0.1000E+02
     -6.520  0.0000E+00  0.1000E+02
     -6.373  0.0000E+00  0.1000E+02
     -6.226  0.0000E+00  0.1000E+02
     -6.079  0.0000E+00  0.1000E+02
     -5.932  0.0000E+00  0.1000E+02
     -5.784  0.0000E+00  0.1000E+02
     -5.637  0.0000E+00  0.1000E+02
     -5.490  0.0000E+00  0.1000E+02
     -5.343  0.0000E+00  0.1000E+02
     -5.196  0.0000E+00  0.1000E+02
     -5.049  0.0000E+00  0.1000E+02
     -4.902  0.0000E+00  0.1000E+02
     -4.755  0.0000E+00  0.1000E+02
     -4.607  0.0000E+00  0.1000E+02
     -4.460  0.0000E+00  0.1000E+02
     -4.313  0.0000E+00  0.1000E+02
     -4.166  0.0000E+00  0.1000E+02
     -4.019  0.0000E+00  0.1000E+02
     -3.872  0.0000E+00  0.1000E+02
     -3.725  0.0000E+00  0.1000E+02
     -3.578  0.0000E+00  0.1000E+02
     -3.430  0.0000E+00  0.1000E+02
     -3.283  0.0000E+00  0.1000E+02
     -3.136  0.0000E+00  0.1000E+02
     -2.989 -0.1477E-28  0.1000E+02
     -2.842 -0.1825E-23  0.1000E+02
     -2.695 -0.7573E-19  0.1000E+02
     -2.548 -0.1053E-14  0.1000E+02
     -2.401 -0.4725E-11  0.1000E+02
     -2.253 -0.7214E-08  0.1000E+02
     -2.106 -0.3613E-05  0.1000E+02
     -1.959 -0.5823E-03  0.1000E+02
     -1.812 -0.2892E-01  0.9996E+01
     -1.665 -0.3853E+00  0.9939E+01
     -1.518 -0.3751E+00  0.9884E+01
     -1.371  0.7663E+01  0.1101E+02
     -1.224  0.1564E+02  0.1331E+02
     -1.076  0.5623E+01  0.1414E+02
     -0.929 -0.6502E+00  0.1404E+02
     -0.782 -0.2800E+00  0.1400E+02
     -0.635 -0.1660E-01  0.1400E+02
     -0.488 -0.2790E-03  0.1400E+02
     -0.341 -0.6182E-03  0.1400E+02
     -0.194 -0.2484E-01  0.1400E+02
     -0.047 -0.2548E+00  0.1396E+02
      0.101  0.8485E-01  0.1397E+02
      0.248  0.4934E+01  0.1470E+02
      0.395  0.7469E+01  0.1580E+02
      0.542  0.1861E+01  0.1607E+02
      0.689 -0.3738E+00  0.1601E+02
      0.836 -0.9574E-01  0.1600E+02
      0.983 -0.4493E-02  0.1600E+02
      1.130 -0.6058E-04  0.1600E+02
      1.278 -0.2566E-06  0.1600E+02
      1.425 -0.3525E-09  0.1600E+02
      1.572 -0.1600E-12  0.1600E+02
      1.719  0.0000E+00  0.1600E+02
      1.866  0.0000E+00  0.1600E+02
      2.013  0.0000E+00  0.1600E+02
      2.160  0.0000E+00  0.1600E+02
      2.307  0.0000E+00  0.1600E+02
      2.454  0.0000E+00  0.1600E+02
      2.602 -0.1338E-29  0.1600E+02
      2.749 -0.1924E-24  0.1600E+02
      2.896 -0.9283E-20  0.1600E+02
      3.043 -0.1501E-15  0.1600E+02
      3.190 -0.7856E-12  0.1600E+02
      3.337 -0.1398E-08  0.1600E+02
      3.484 -0.8174E-06  0.1600E+02
      3.631 -0.1544E-03  0.1600E+02
      3.779 -0.9067E-02  0.1600E+02
      3.926 -0.1479E+00  0.1598E+02
      4.073 -0.3282E+00  0.1593E+02
      4.220  0.2749E+01  0.1633E+02
      4.367  0.7736E+01  0.1747E+02
      4.514  0.7905E+01  0.1863E+02
      4.661  0.7515E+01  0.1974E+02
      4.808  0.2263E+01  0.2007E+02
      4.956 -0.3656E+00  0.2002E+02
      5.103 -0.1238E+00  0.2000E+02
      5.250 -0.5213E-01  0.1999E+02
      5.397 -0.4984E+00  0.1992E+02
      5.544 -0.1175E+00  0.1990E+02
      5.691  0.9217E+01  0.2126E+02
      5.838  0.1849E+02  0.2398E+02
      5.985  0.1190E+02  0.2573E+02
      6.133  0.2510E+01  0.2610E+02
      6.280 -0.4829E+00  0.2603E+02
      6.427 -0.1721E+00  0.2600E+02
      6.574 -0.1078E-01  0.2600E+02
      6.721 -0.1924E-03  0.2600E+02
      6.868 -0.1072E-05  0.2600E+02
      7.015 -0.1953E-08  0.2600E+02
      7.162 -0.2432E-07  0.2600E+02
      7.310 -0.8803E-05  0.2600E+02
      7.457 -0.1017E-02  0.2600E+02
      7.604 -0.3534E-01  0.2599E+02
      7.751 -0.2982E+00  0.2595E+02
      7.898  0.3676E+00  0.2600E+02
      8.045  0.5672E+01  0.2684E+02
      8.192  0.7036E+01  0.2787E+02
      8.339  0.1292E+01  0.2806E+02
      8.487 -0.4712E+00  0.2800E+02
      8.634 -0.4426E+00  0.2793E+02
      8.781  0.2006E+01  0.2823E+02
      8.928  0.7551E+01  0.2934E+02
      9.075  0.4751E+01  0.3004E+02
      9.222  0.2887E-01  0.3004E+02
      9.369 -0.2442E+00  0.3000E+02
      9.516 -0.2298E-01  0.3000E+02
      9.664 -0.1476E-01  0.3000E+02
      9.811 -0.2567E+00  0.2996E+02
      9.958 -0.7512E+00  0.2985E+02
     10.105  0.4621E+01  0.3053E+02
     10.252  0.1581E+02  0.3286E+02
     10.399  0.1696E+02  0.3535E+02
     10.546  0.1764E+02  0.3795E+02
     10.693  0.1240E+02  0.3977E+02
     10.841  0.2326E+01  0.4011E+02
     10.988 -0.6355E+00  0.4002E+02
     11.135 -0.6285E+00  0.3993E+02
     11.282 -0.4194E-01  0.3992E+02
     11.429  0.9179E+01  0.4127E+02
     11.576  0.1522E+02  0.4351E+02
     11.723  0.4165E+01  0.4412E+02
     11.870 -0.1089E+01  0.4396E+02
     12.018  0.2181E+01  0.4428E+02
     12.165  0.7704E+01  0.4542E+02
     12.312  0.4274E+01  0.4605E+02
     12.459 -0.3039E+00  0.4600E+02
     12.606 -0.3343E+00  0.4595E+02
     12.753  0.4166E+01  0.4656E+02
     12.900  0.7745E+01  0.4770E+02
     13.047  0.2492E+01  0.4807E+02
     13.195 -0.3495E+00  0.4802E+02
     13.342 -0.1246E+00  0.4800E+02
     13.489 -0.6847E-02  0.4800E+02
     13.636 -0.1060E-03  0.4800E+02
     13.783 -0.5122E-06  0.4800E+02
     13.930 -0.8010E-09  0.4800E+02
     14.077 -0.4105E-12  0.4800E+02
     14.224  0.0000E+00  0.4800E+02
     14.372  0.0000E+00  0.4800E+02
     14.519  0.0000E+00  0.4800E+02
     14.666  0.0000E+00  0.4800E+02
     14.813  0.0000E+00  0.4800E+02
