    2    2    1    1
  0.6250000E+02  0.5000000E-09  0.5000000E-09  0.5000000E-09  0.5000000E-15
  1.000000000000000E-004
  CAR 
 unknown system                          
     10      1     24
 
  0.0000000E+00  0.0000000E+00  0.0000000E+00  0.1000000E+01
    1      -27.318016   1.000000
    2      -12.906469   1.000000
    3      -10.091662   1.000000
    4      -10.091662   1.000000
    5       -8.179275   1.000000
    6       -1.309196   0.000000
    7       -1.309196   0.000000
    8        0.284093   0.000000
    9        4.301862   0.000000
   10        4.566583   0.000000
   11        5.732124   0.000000
   12        5.732124   0.000000
   13        5.910471   0.000000
   14        8.064286   0.000000
   15        8.887314   0.000000
   16       10.197061   0.000000
   17       10.197061   0.000000
   18       10.396964   0.000000
   19       10.494832   0.000000
   20       10.607361   0.000000
   21       11.473357   0.000000
   22       11.473357   0.000000
   23       12.113599   0.000000
   24       12.806666   0.000000
