       N       E                     dE             d eps       ncg     rms          rms(c)
DAV:   1    -0.148486899015E+02   -0.14849E+02   -0.62057E-06    48   0.762E-03    0.398E-03
DAV:   2    -0.148486896366E+02    0.26489E-06   -0.45491E-06    24   0.492E-03
   1 F= -.14848690E+02 E0= -.14852555E+02  d E =0.115958E-01
