<?xml version="1.0" encoding="ISO-8859-1"?>
<modeling>
 <generator>
  <i name="program" type="string">vasp </i>
  <i name="version" type="string">5.4.1  </i>
  <i name="subversion" type="string">05Feb16 (build Apr 25 2018 11:37:45) complex                          parallel </i>
  <i name="platform" type="string">LinuxIFC </i>
  <i name="date" type="string">2023 01 29 </i>
  <i name="time" type="string">13:38:50 </i>
 </generator>
 <incar>
  <i type="string" name="PREC">normal</i>
  <i name="ENCUT">    350.00000000</i>
  <v type="int" name="KPOINT_BSE">    -1     0     0     0</v>
  <i type="string" name="GGA"> PE</i>
 </incar>
 <kpoints>
  <generation param="Monkhorst-Pack">
   <v type="int" name="divisions">       1        1        1 </v>
   <v name="usershift">      0.00000000       0.00000000       0.00000000 </v>
   <v name="genvec1">      1.00000000       0.00000000       0.00000000 </v>
   <v name="genvec2">      0.00000000       1.00000000       0.00000000 </v>
   <v name="genvec3">      0.00000000       0.00000000       1.00000000 </v>
   <v name="shift">      0.00000000       0.00000000       0.00000000 </v>
  </generation>
  <varray name="kpointlist" >
   <v>       0.00000000       0.00000000       0.00000000 </v>
  </varray>
  <varray name="weights" >
   <v>       1.00000000 </v>
  </varray>
 </kpoints>
 <parameters>
  <separator name="general" >
   <i type="string" name="SYSTEM">unknown system</i>
   <i type="logical" name="LCOMPAT"> F  </i>
  </separator>
  <separator name="electronic" >
   <i type="string" name="PREC">normal</i>
   <i name="ENMAX">    350.00000000</i>
   <i name="ENAUG">    644.87300000</i>
   <i name="EDIFF">      0.00010000</i>
   <i type="int" name="IALGO">    38</i>
   <i type="int" name="IWAVPR">    10</i>
   <i type="int" name="NBANDS">    24</i>
   <i name="NELECT">     10.00000000</i>
   <i type="int" name="TURBO">     0</i>
   <i type="int" name="IRESTART">     0</i>
   <i type="int" name="NREBOOT">     0</i>
   <i type="int" name="NMIN">     0</i>
   <i name="EREF">      0.00000000</i>
   <separator name="electronic smearing" >
    <i type="int" name="ISMEAR">     1</i>
    <i name="SIGMA">      0.20000000</i>
    <i name="KSPACING">      0.50000000</i>
    <i type="logical" name="KGAMMA"> T  </i>
   </separator>
   <separator name="electronic projectors" >
    <i type="logical" name="LREAL"> F  </i>
    <v name="ROPT">      0.00000000      0.00000000</v>
    <i type="int" name="LMAXPAW">  -100</i>
    <i type="int" name="LMAXMIX">     2</i>
    <i type="logical" name="NLSPLINE"> F  </i>
   </separator>
   <separator name="electronic startup" >
    <i type="int" name="ISTART">     1</i>
    <i type="int" name="ICHARG">     0</i>
    <i type="int" name="INIWAV">     1</i>
   </separator>
   <separator name="electronic spin" >
    <i type="int" name="ISPIN">     1</i>
    <i type="logical" name="LNONCOLLINEAR"> F  </i>
    <v name="MAGMOM">      1.00000000      1.00000000</v>
    <i name="NUPDOWN">     -1.00000000</i>
    <i type="logical" name="LSORBIT"> F  </i>
    <v name="SAXIS">      0.00000000      0.00000000      1.00000000</v>
    <i type="logical" name="LSPIRAL"> F  </i>
    <v name="QSPIRAL">      0.00000000      0.00000000      0.00000000</v>
    <i type="logical" name="LZEROZ"> F  </i>
   </separator>
   <separator name="electronic exchange-correlation" >
    <i type="logical" name="LASPH"> F  </i>
    <i type="logical" name="LMETAGGA"> F  </i>
   </separator>
   <separator name="electronic convergence" >
    <i type="int" name="NELM">    60</i>
    <i type="int" name="NELMDL">     0</i>
    <i type="int" name="NELMIN">     2</i>
    <i name="ENINI">    350.00000000</i>
    <separator name="electronic convergence detail" >
     <i type="logical" name="LDIAG"> T  </i>
     <i type="logical" name="LSUBROT"> F  </i>
     <i name="WEIMIN">      0.00000000</i>
     <i name="EBREAK">      0.00000104</i>
     <i name="DEPER">      0.30000000</i>
     <i type="int" name="NRMM">     4</i>
     <i name="TIME">      0.40000000</i>
    </separator>
   </separator>
   <separator name="electronic mixer" >
    <i name="AMIX">      0.40000000</i>
    <i name="BMIX">      1.00000000</i>
    <i name="AMIN">      0.10000000</i>
    <i name="AMIX_MAG">      1.60000000</i>
    <i name="BMIX_MAG">      1.00000000</i>
    <separator name="electronic mixer details" >
     <i type="int" name="IMIX">     4</i>
     <i type="logical" name="MIXFIRST"> F  </i>
     <i type="int" name="MAXMIX">   -45</i>
     <i name="WC">    100.00000000</i>
     <i type="int" name="INIMIX">     1</i>
     <i type="int" name="MIXPRE">     1</i>
     <i type="int" name="MREMOVE">     5</i>
    </separator>
   </separator>
   <separator name="electronic dipolcorrection" >
    <i type="logical" name="LDIPOL"> F  </i>
    <i type="logical" name="LMONO"> F  </i>
    <i type="int" name="IDIPOL">     0</i>
    <i name="EPSILON">      1.00000000</i>
    <v name="DIPOL">   -100.00000000   -100.00000000   -100.00000000</v>
    <i name="EFIELD">      0.00000000</i>
   </separator>
  </separator>
  <separator name="grids" >
   <i type="int" name="NGX">    24</i>
   <i type="int" name="NGY">    24</i>
   <i type="int" name="NGZ">    24</i>
   <i type="int" name="NGXF">    48</i>
   <i type="int" name="NGYF">    48</i>
   <i type="int" name="NGZF">    48</i>
   <i type="logical" name="ADDGRID"> F  </i>
  </separator>
  <separator name="ionic" >
   <i type="int" name="NSW">     0</i>
   <i type="int" name="IBRION">    -1</i>
   <i type="int" name="ISIF">     2</i>
   <i name="PSTRESS">      0.00000000</i>
   <i name="EDIFFG">      0.00100000</i>
   <i type="int" name="NFREE">     0</i>
   <i name="POTIM">      0.50000000</i>
   <i name="SMASS">     -3.00000000</i>
   <i name="SCALEE">      1.00000000</i>
  </separator>
  <separator name="ionic md" >
   <i name="TEBEG">      0.00010000</i>
   <i name="TEEND">      0.00010000</i>
   <i type="int" name="NBLOCK">     1</i>
   <i type="int" name="KBLOCK">     1</i>
   <i type="int" name="NPACO">   256</i>
   <i name="APACO">     16.00000000</i>
  </separator>
  <separator name="symmetry" >
   <i type="int" name="ISYM">     2</i>
   <i name="SYMPREC">      0.00001000</i>
  </separator>
  <separator name="dos" >
   <i type="logical" name="LORBIT"> F  </i>
   <v name="RWIGS">     -1.00000000     -1.00000000</v>
   <i type="int" name="NEDOS">   301</i>
   <i name="EMIN">     10.00000000</i>
   <i name="EMAX">    -10.00000000</i>
   <i name="EFERMI">      0.00000000</i>
  </separator>
  <separator name="writing" >
   <i type="int" name="NWRITE">     2</i>
   <i type="logical" name="LWAVE"> T  </i>
   <i type="logical" name="LCHARG"> T  </i>
   <i type="logical" name="LPARD"> F  </i>
   <i type="logical" name="LVTOT"> F  </i>
   <i type="logical" name="LVHAR"> F  </i>
   <i type="logical" name="LELF"> F  </i>
   <i type="logical" name="LOPTICS"> F  </i>
   <v name="STM">      0.00000000      0.00000000      0.00000000      0.00000000      0.00000000      0.00000000      0.00000000</v>
  </separator>
  <separator name="performance" >
   <i type="int" name="NPAR">    24</i>
   <i type="int" name="NSIM">     4</i>
   <i type="int" name="NBLK">    -1</i>
   <i type="logical" name="LPLANE"> T  </i>
   <i type="logical" name="LSCALAPACK"> F  </i>
   <i type="logical" name="LSCAAWARE"> F  </i>
   <i type="logical" name="LSCALU"> F  </i>
   <i type="logical" name="LASYNC"> F  </i>
   <i type="logical" name="LORBITALREAL"> F  </i>
  </separator>
  <separator name="miscellaneous" >
   <i type="int" name="IDIOT">     3</i>
   <i type="logical" name="LMUSIC"> F  </i>
   <v name="POMASS">     12.01100000     16.00000000</v>
   <v name="DARWINR">      0.00000000      0.00000000</v>
   <v name="DARWINV">      1.00000000      1.00000000</v>
   <i type="logical" name="LCORR"> T  </i>
  </separator>
  <i type="logical" name="GGA_COMPAT"> T  </i>
  <i type="logical" name="LBERRY"> F  </i>
  <i type="int" name="ICORELEVEL">     0</i>
  <i type="logical" name="LDAU"> F  </i>
  <i type="int" name="I_CONSTRAINED_M">     0</i>
  <separator name="electronic exchange-correlation" >
   <i type="string" name="GGA">PE</i>
   <i type="int" name="VOSKOWN">     0</i>
   <i type="logical" name="LHFCALC"> F  </i>
   <i type="string" name="PRECFOCK"></i>
   <i type="logical" name="LSYMGRAD"> F  </i>
   <i type="logical" name="LHFONE"> F  </i>
   <i type="logical" name="LRHFCALC"> F  </i>
   <i type="logical" name="LTHOMAS"> F  </i>
   <i type="logical" name="LMODELHF"> F  </i>
   <i name="ENCUT4O">     -1.00000000</i>
   <i type="int" name="EXXOEP">     0</i>
   <i type="int" name="FOURORBIT">     0</i>
   <i name="AEXX">      0.00000000</i>
   <i name="HFALPHA">      0.00000000</i>
   <i name="MCALPHA">      0.00000000</i>
   <i name="ALDAX">      1.00000000</i>
   <i name="AGGAX">      1.00000000</i>
   <i name="ALDAC">      1.00000000</i>
   <i name="AGGAC">      1.00000000</i>
   <i type="int" name="NKREDX">     1</i>
   <i type="int" name="NKREDY">     1</i>
   <i type="int" name="NKREDZ">     1</i>
   <i type="logical" name="SHIFTRED"> F  </i>
   <i type="logical" name="ODDONLY"> F  </i>
   <i type="logical" name="EVENONLY"> F  </i>
   <i type="int" name="LMAXFOCK">     0</i>
   <i type="int" name="NMAXFOCKAE">     0</i>
   <i type="logical" name="LFOCKAEDFT"> F  </i>
   <i name="HFSCREEN">      0.00000000</i>
   <i name="HFSCREENC">      0.00000000</i>
   <i type="int" name="NBANDSGWLOW">     0</i>
  </separator>
  <separator name="vdW DFT" >
   <i type="logical" name="LUSE_VDW"> F  </i>
   <i name="Zab_VDW">     -0.84910000</i>
   <i name="PARAM1">      0.12340000</i>
   <i name="PARAM2">      1.00000000</i>
   <i name="PARAM3">      0.00000000</i>
  </separator>
  <separator name="model GW" >
   <i type="int" name="MODEL_GW">     0</i>
   <i name="MODEL_EPS0">     37.50000000</i>
   <i name="MODEL_ALPHA">      1.00000000</i>
  </separator>
  <separator name="linear response parameters" >
   <i type="logical" name="LEPSILON"> F  </i>
   <i type="logical" name="LRPA"> F  </i>
   <i type="logical" name="LNABLA"> F  </i>
   <i type="logical" name="LVEL"> F  </i>
   <i type="int" name="KINTER">     0</i>
   <i name="CSHIFT">      0.10000000</i>
   <i name="OMEGAMAX">     -1.00000000</i>
   <i name="DEG_THRESHOLD">      0.00200000</i>
  </separator>
  <separator name="orbital magnetization" >
   <i type="logical" name="NUCIND"> F  </i>
   <v name="MAGPOS">      0.00000000      0.00000000      0.00000000</v>
   <i type="logical" name="LNICSALL"> T  </i>
   <i type="logical" name="ORBITALMAG"> F  </i>
   <i type="logical" name="LMAGBLOCH"> F  </i>
   <i type="logical" name="LCHIMAG"> F  </i>
   <i type="logical" name="LGAUGE"> T  </i>
   <i type="int" name="MAGATOM">     0</i>
   <v name="MAGDIPOL">      0.00000000      0.00000000      0.00000000</v>
   <v name="AVECCONST">      0.00000000      0.00000000      0.00000000</v>
  </separator>
  <separator name="response functions" >
   <i type="logical" name="LADDER"> F  </i>
   <i type="logical" name="LFXC"> F  </i>
   <i type="logical" name="LHARTREE"> T  </i>
   <i type="int" name="IBSE">     0</i>
   <v type="int" name="KPOINT">    -1     0     0     0</v>
   <i type="logical" name="LTCTE"> F  </i>
   <i type="logical" name="LTETE"> F  </i>
   <i type="logical" name="LTRIPLET"> F  </i>
   <i type="logical" name="LFXCEPS"> F  </i>
   <i type="logical" name="LFXHEG"> F  </i>
   <i type="int" name="NATURALO">     0</i>
   <i type="logical" name="L2ORDER"> F  </i>
   <i type="logical" name="LUSEW"> F  </i>
   <i name="ENCUTGW">     -2.00000000</i>
   <i name="ENCUTGWSOFT">     -2.00000000</i>
   <i name="ENCUTLF">     -1.00000000</i>
   <i type="int" name="LMAXMP2">    -1</i>
   <i name="SCISSOR">      0.00000000</i>
   <i type="int" name="NOMEGA">     0</i>
   <i type="int" name="NOMEGAR">     0</i>
   <i type="int" name="NBANDSGW">    -1</i>
   <i type="int" name="NBANDSO">    -1</i>
   <i type="int" name="NBANDSV">    -1</i>
   <i type="int" name="NELM">     1</i>
   <i type="int" name="NELMHF">     1</i>
   <i type="int" name="DIM">     3</i>
   <i type="int" name="ANTIRES">     0</i>
   <i name="OMEGAMAX">    -30.00000000</i>
   <i name="OMEGAMIN">    -30.00000000</i>
   <i name="OMEGATL">   -200.00000000</i>
   <i type="int" name="OMEGAGRID">     0</i>
   <i name="CSHIFT">     -0.10000000</i>
   <i type="logical" name="SELFENERGY"> F  </i>
   <i type="logical" name="LSPECTRAL"> F  </i>
   <i type="logical" name="LSPECTRALGW"> F  </i>
   <i type="logical" name="LSINGLES"> F  </i>
   <i type="logical" name="LFERMIGW"> F  </i>
   <i type="logical" name="ODDONLYGW"> F  </i>
   <i type="logical" name="EVENONLYGW"> F  </i>
   <i type="int" name="NKREDLFX">     1</i>
   <i type="int" name="NKREDLFY">     1</i>
   <i type="int" name="NKREDLFZ">     1</i>
   <i type="int" name="MAXMEM">  1800</i>
   <i type="int" name="TELESCOPE">     0</i>
   <i type="int" name="TAUPAR">     1</i>
   <i type="int" name="OMEGAPAR">    -1</i>
   <i name="LAMBDA">      1.00000000</i>
  </separator>
  <separator name="External order field" >
   <i name="OFIELD_KAPPA">      0.00000000</i>
   <v name="OFIELD_K">      0.00000000      0.00000000      0.00000000</v>
   <i name="OFIELD_Q6_NEAR">      0.00000000</i>
   <i name="OFIELD_Q6_FAR">      0.00000000</i>
   <i name="OFIELD_A">      0.00000000</i>
  </separator>
 </parameters>
 <atominfo>
  <atoms>       2 </atoms>
  <types>       2 </types>
  <array name="atoms" >
   <dimension dim="1">ion</dimension>
   <field type="string">element</field>
   <field type="int">atomtype</field>
   <set>
    <rc><c>C </c><c>   1</c></rc>
    <rc><c>O </c><c>   2</c></rc>
   </set>
  </array>
  <array name="atomtypes" >
   <dimension dim="1">type</dimension>
   <field type="int">atomspertype</field>
   <field type="string">element</field>
   <field>mass</field>
   <field>valence</field>
   <field type="string">pseudopotential</field>
   <set>
    <rc><c>   1</c><c>C </c><c>     12.01100000</c><c>      4.00000000</c><c>  PAW_PBE C 08Apr2002                   </c></rc>
    <rc><c>   1</c><c>O </c><c>     16.00000000</c><c>      6.00000000</c><c>  PAW_PBE O 08Apr2002                   </c></rc>
   </set>
  </array>
 </atominfo>
 <structure name="initialpos" >
  <crystal>
   <varray name="basis" >
    <v>       5.00000000       0.00000000       0.00000000 </v>
    <v>       0.00000000       5.00000000       0.00000000 </v>
    <v>       0.00000000       0.00000000       5.00000000 </v>
   </varray>
   <i name="volume">    125.00000000 </i>
   <varray name="rec_basis" >
    <v>       0.20000000       0.00000000       0.00000000 </v>
    <v>       0.00000000       0.20000000       0.00000000 </v>
    <v>       0.00000000       0.00000000       0.20000000 </v>
   </varray>
  </crystal>
  <varray name="positions" >
   <v>       0.38000000       0.50000000       0.50000000 </v>
   <v>       0.62000000       0.50000000       0.50000000 </v>
  </varray>
 </structure>
 <calculation>
  <scstep>
   <time name="dav">    0.01    0.01</time>
   <time name="total">    0.02    0.02</time>
   <energy>
    <i name="alphaZ">      3.49566040 </i>
    <i name="ewald">   -111.50785835 </i>
    <i name="hartreedc">   -386.37170197 </i>
    <i name="XCdc">     39.87955881 </i>
    <i name="pawpsdc">    785.02997055 </i>
    <i name="pawaedc">   -787.29178055 </i>
    <i name="eentropy">      0.01159581 </i>
    <i name="bandstr">   -137.16536506 </i>
    <i name="atom">    579.07123046 </i>
    <i name="e_fr_energy">    -14.84868990 </i>
    <i name="e_wo_entrp">    -14.86028571 </i>
    <i name="e_0_energy">    -14.85255517 </i>
   </energy>
  </scstep>
  <scstep>
   <time name="dav">    0.00    0.00</time>
   <time name="total">    0.01    0.01</time>
   <energy>
    <i name="alphaZ">      3.49566040 </i>
    <i name="ewald">   -111.50785835 </i>
    <i name="hartreedc">   -386.36250341 </i>
    <i name="XCdc">     39.87903386 </i>
    <i name="pawpsdc">    785.02658998 </i>
    <i name="pawaedc">   -787.28826907 </i>
    <i name="eentropy">      0.01159581 </i>
    <i name="bandstr">   -137.17416932 </i>
    <i name="atom">    579.07123046 </i>
    <i name="e_fr_energy">    -14.84868964 </i>
    <i name="e_wo_entrp">    -14.86028545 </i>
    <i name="e_0_energy">    -14.85255491 </i>
   </energy>
  </scstep>
  <structure>
   <crystal>
    <varray name="basis" >
     <v>       5.00000000       0.00000000       0.00000000 </v>
     <v>       0.00000000       5.00000000       0.00000000 </v>
     <v>       0.00000000       0.00000000       5.00000000 </v>
    </varray>
    <i name="volume">    125.00000000 </i>
    <varray name="rec_basis" >
     <v>       0.20000000       0.00000000       0.00000000 </v>
     <v>       0.00000000       0.20000000       0.00000000 </v>
     <v>       0.00000000       0.00000000       0.20000000 </v>
    </varray>
   </crystal>
   <varray name="positions" >
    <v>       0.38000000       0.50000000       0.50000000 </v>
    <v>       0.62000000       0.50000000       0.50000000 </v>
   </varray>
  </structure>
  <varray name="forces" >
   <v>       5.01601558       0.00000000      -0.00000000 </v>
   <v>      -5.01601558       0.00000000       0.00000000 </v>
  </varray>
  <varray name="stress" >
   <v>    -121.84845586      -0.00000000      -0.00000000 </v>
   <v>      -0.00000000     -29.65323336      -0.00000000 </v>
   <v>       0.00000000      -0.00000000     -29.65323336 </v>
  </varray>
  <energy>
   <i name="e_fr_energy">    -14.84868964 </i>
   <i name="e_wo_entrp">    -14.85255491 </i>
   <i name="e_0_energy">      0.01159581 </i>
  </energy>
  <time name="totalsc">    0.19    0.24</time>
  <eigenvalues>
   <array>
    <dimension dim="1">band</dimension>
    <dimension dim="2">kpoint</dimension>
    <dimension dim="3">spin</dimension>
    <field>eigene</field>
    <field>occ</field>
    <set>
     <set comment="spin 1">
      <set comment="kpoint 1">
       <r>  -27.3180    1.0000 </r>
       <r>  -12.9065    1.0000 </r>
       <r>  -10.0917    1.0000 </r>
       <r>  -10.0917    1.0000 </r>
       <r>   -8.1793    1.0000 </r>
       <r>   -1.3092    0.0000 </r>
       <r>   -1.3092    0.0000 </r>
       <r>    0.2841    0.0000 </r>
       <r>    4.3019    0.0000 </r>
       <r>    4.5666    0.0000 </r>
       <r>    5.7321    0.0000 </r>
       <r>    5.7321    0.0000 </r>
       <r>    5.9105    0.0000 </r>
       <r>    8.0643    0.0000 </r>
       <r>    8.8873    0.0000 </r>
       <r>   10.1971    0.0000 </r>
       <r>   10.1971    0.0000 </r>
       <r>   10.3970    0.0000 </r>
       <r>   10.4948    0.0000 </r>
       <r>   10.6074    0.0000 </r>
       <r>   11.4734    0.0000 </r>
       <r>   11.4734    0.0000 </r>
       <r>   12.1136    0.0000 </r>
       <r>   12.8067    0.0000 </r>
      </set>
     </set>
    </set>
   </array>
  </eigenvalues>
  <separator name="orbital magnetization" >
   <v name="MAGDIPOLOUT">      0.00000000      0.00000000      0.00000000</v>
  </separator>
  <dos>
   <i name="efermi">     -8.01089891 </i>
   <total>
    <array>
     <dimension dim="1">gridpoints</dimension>
     <dimension dim="2">spin</dimension>
     <field>energy</field>
     <field>total</field>
     <field>integrated</field>
     <set>
      <set comment="spin 1">
       <r>   -29.3242     0.0000     0.0000 </r>
       <r>   -29.1771     0.0000     0.0000 </r>
       <r>   -29.0300    -0.0000    -0.0000 </r>
       <r>   -28.8829    -0.0000    -0.0000 </r>
       <r>   -28.7358    -0.0000    -0.0000 </r>
       <r>   -28.5886    -0.0000    -0.0000 </r>
       <r>   -28.4415    -0.0000    -0.0000 </r>
       <r>   -28.2944    -0.0000    -0.0000 </r>
       <r>   -28.1473    -0.0000    -0.0000 </r>
       <r>   -28.0001    -0.0001    -0.0000 </r>
       <r>   -27.8530    -0.0068    -0.0010 </r>
       <r>   -27.7059    -0.1246    -0.0194 </r>
       <r>   -27.5588    -0.3495    -0.0708 </r>
       <r>   -27.4116     2.4918     0.2958 </r>
       <r>   -27.2645     7.7450     1.4353 </r>
       <r>   -27.1174     4.1843     2.0509 </r>
       <r>   -26.9703    -0.1163     2.0338 </r>
       <r>   -26.8231    -0.2120     2.0026 </r>
       <r>   -26.6760    -0.0173     2.0001 </r>
       <r>   -26.5289    -0.0004     2.0000 </r>
       <r>   -26.3818    -0.0000     2.0000 </r>
       <r>   -26.2346    -0.0000     2.0000 </r>
       <r>   -26.0875    -0.0000     2.0000 </r>
       <r>   -25.9404     0.0000     2.0000 </r>
       <r>   -25.7933     0.0000     2.0000 </r>
       <r>   -25.6462     0.0000     2.0000 </r>
       <r>   -25.4990     0.0000     2.0000 </r>
       <r>   -25.3519     0.0000     2.0000 </r>
       <r>   -25.2048     0.0000     2.0000 </r>
       <r>   -25.0577     0.0000     2.0000 </r>
       <r>   -24.9105     0.0000     2.0000 </r>
       <r>   -24.7634     0.0000     2.0000 </r>
       <r>   -24.6163     0.0000     2.0000 </r>
       <r>   -24.4692     0.0000     2.0000 </r>
       <r>   -24.3220     0.0000     2.0000 </r>
       <r>   -24.1749     0.0000     2.0000 </r>
       <r>   -24.0278     0.0000     2.0000 </r>
       <r>   -23.8807     0.0000     2.0000 </r>
       <r>   -23.7335     0.0000     2.0000 </r>
       <r>   -23.5864     0.0000     2.0000 </r>
       <r>   -23.4393     0.0000     2.0000 </r>
       <r>   -23.2922     0.0000     2.0000 </r>
       <r>   -23.1450     0.0000     2.0000 </r>
       <r>   -22.9979     0.0000     2.0000 </r>
       <r>   -22.8508     0.0000     2.0000 </r>
       <r>   -22.7037     0.0000     2.0000 </r>
       <r>   -22.5566     0.0000     2.0000 </r>
       <r>   -22.4094     0.0000     2.0000 </r>
       <r>   -22.2623     0.0000     2.0000 </r>
       <r>   -22.1152     0.0000     2.0000 </r>
       <r>   -21.9681     0.0000     2.0000 </r>
       <r>   -21.8209     0.0000     2.0000 </r>
       <r>   -21.6738     0.0000     2.0000 </r>
       <r>   -21.5267     0.0000     2.0000 </r>
       <r>   -21.3796     0.0000     2.0000 </r>
       <r>   -21.2324     0.0000     2.0000 </r>
       <r>   -21.0853     0.0000     2.0000 </r>
       <r>   -20.9382     0.0000     2.0000 </r>
       <r>   -20.7911     0.0000     2.0000 </r>
       <r>   -20.6439     0.0000     2.0000 </r>
       <r>   -20.4968     0.0000     2.0000 </r>
       <r>   -20.3497     0.0000     2.0000 </r>
       <r>   -20.2026     0.0000     2.0000 </r>
       <r>   -20.0554     0.0000     2.0000 </r>
       <r>   -19.9083     0.0000     2.0000 </r>
       <r>   -19.7612     0.0000     2.0000 </r>
       <r>   -19.6141     0.0000     2.0000 </r>
       <r>   -19.4670     0.0000     2.0000 </r>
       <r>   -19.3198     0.0000     2.0000 </r>
       <r>   -19.1727     0.0000     2.0000 </r>
       <r>   -19.0256     0.0000     2.0000 </r>
       <r>   -18.8785     0.0000     2.0000 </r>
       <r>   -18.7313     0.0000     2.0000 </r>
       <r>   -18.5842     0.0000     2.0000 </r>
       <r>   -18.4371     0.0000     2.0000 </r>
       <r>   -18.2900     0.0000     2.0000 </r>
       <r>   -18.1428     0.0000     2.0000 </r>
       <r>   -17.9957     0.0000     2.0000 </r>
       <r>   -17.8486     0.0000     2.0000 </r>
       <r>   -17.7015     0.0000     2.0000 </r>
       <r>   -17.5543     0.0000     2.0000 </r>
       <r>   -17.4072     0.0000     2.0000 </r>
       <r>   -17.2601     0.0000     2.0000 </r>
       <r>   -17.1130     0.0000     2.0000 </r>
       <r>   -16.9658     0.0000     2.0000 </r>
       <r>   -16.8187     0.0000     2.0000 </r>
       <r>   -16.6716     0.0000     2.0000 </r>
       <r>   -16.5245     0.0000     2.0000 </r>
       <r>   -16.3774     0.0000     2.0000 </r>
       <r>   -16.2302     0.0000     2.0000 </r>
       <r>   -16.0831     0.0000     2.0000 </r>
       <r>   -15.9360     0.0000     2.0000 </r>
       <r>   -15.7889     0.0000     2.0000 </r>
       <r>   -15.6417     0.0000     2.0000 </r>
       <r>   -15.4946     0.0000     2.0000 </r>
       <r>   -15.3475     0.0000     2.0000 </r>
       <r>   -15.2004     0.0000     2.0000 </r>
       <r>   -15.0532     0.0000     2.0000 </r>
       <r>   -14.9061     0.0000     2.0000 </r>
       <r>   -14.7590     0.0000     2.0000 </r>
       <r>   -14.6119    -0.0000     2.0000 </r>
       <r>   -14.4647    -0.0000     2.0000 </r>
       <r>   -14.3176    -0.0000     2.0000 </r>
       <r>   -14.1705    -0.0000     2.0000 </r>
       <r>   -14.0234    -0.0000     2.0000 </r>
       <r>   -13.8762    -0.0000     2.0000 </r>
       <r>   -13.7291    -0.0000     2.0000 </r>
       <r>   -13.5820    -0.0001     2.0000 </r>
       <r>   -13.4349    -0.0080     1.9988 </r>
       <r>   -13.2878    -0.1372     1.9786 </r>
       <r>   -13.1406    -0.3301     1.9300 </r>
       <r>   -12.9935     2.7532     2.3351 </r>
       <r>   -12.8464     7.8087     3.4840 </r>
       <r>   -12.6993     3.8946     4.0570 </r>
       <r>   -12.5521    -0.1758     4.0311 </r>
       <r>   -12.4050    -0.1961     4.0022 </r>
       <r>   -12.2579    -0.0149     4.0000 </r>
       <r>   -12.1108    -0.0003     4.0000 </r>
       <r>   -11.9636    -0.0000     4.0000 </r>
       <r>   -11.8165    -0.0000     4.0000 </r>
       <r>   -11.6694    -0.0000     4.0000 </r>
       <r>   -11.5223    -0.0000     4.0000 </r>
       <r>   -11.3751    -0.0000     4.0000 </r>
       <r>   -11.2280    -0.0000     4.0000 </r>
       <r>   -11.0809    -0.0000     4.0000 </r>
       <r>   -10.9338    -0.0000     4.0000 </r>
       <r>   -10.7866    -0.0001     4.0000 </r>
       <r>   -10.6395    -0.0100     3.9985 </r>
       <r>   -10.4924    -0.2047     3.9684 </r>
       <r>   -10.3453    -0.7418     3.8593 </r>
       <r>   -10.1982     4.0181     4.4504 </r>
       <r>   -10.0510    15.1019     6.6723 </r>
       <r>    -9.9039     9.5018     8.0702 </r>
       <r>    -9.7568     0.0577     8.0787 </r>
       <r>    -9.6097    -0.4883     8.0069 </r>
       <r>    -9.4625    -0.0455     8.0002 </r>
       <r>    -9.3154    -0.0011     8.0000 </r>
       <r>    -9.1683    -0.0000     8.0000 </r>
       <r>    -9.0212    -0.0000     8.0000 </r>
       <r>    -8.8740    -0.0001     8.0000 </r>
       <r>    -8.7269    -0.0050     7.9993 </r>
       <r>    -8.5798    -0.1027     7.9841 </r>
       <r>    -8.4327    -0.3707     7.9296 </r>
       <r>    -8.2855     2.0171     8.2264 </r>
       <r>    -8.1384     7.5551     9.3379 </r>
       <r>    -7.9913     4.7412    10.0354 </r>
       <r>    -7.8442     0.0260    10.0393 </r>
       <r>    -7.6970    -0.2436    10.0034 </r>
       <r>    -7.5499    -0.0227    10.0001 </r>
       <r>    -7.4028    -0.0005    10.0000 </r>
       <r>    -7.2557    -0.0000    10.0000 </r>
       <r>    -7.1086    -0.0000    10.0000 </r>
       <r>    -6.9614    -0.0000    10.0000 </r>
       <r>    -6.8143    -0.0000    10.0000 </r>
       <r>    -6.6672     0.0000    10.0000 </r>
       <r>    -6.5201     0.0000    10.0000 </r>
       <r>    -6.3729     0.0000    10.0000 </r>
       <r>    -6.2258     0.0000    10.0000 </r>
       <r>    -6.0787     0.0000    10.0000 </r>
       <r>    -5.9316     0.0000    10.0000 </r>
       <r>    -5.7844     0.0000    10.0000 </r>
       <r>    -5.6373     0.0000    10.0000 </r>
       <r>    -5.4902     0.0000    10.0000 </r>
       <r>    -5.3431     0.0000    10.0000 </r>
       <r>    -5.1959     0.0000    10.0000 </r>
       <r>    -5.0488     0.0000    10.0000 </r>
       <r>    -4.9017     0.0000    10.0000 </r>
       <r>    -4.7546     0.0000    10.0000 </r>
       <r>    -4.6074     0.0000    10.0000 </r>
       <r>    -4.4603     0.0000    10.0000 </r>
       <r>    -4.3132     0.0000    10.0000 </r>
       <r>    -4.1661     0.0000    10.0000 </r>
       <r>    -4.0190     0.0000    10.0000 </r>
       <r>    -3.8718     0.0000    10.0000 </r>
       <r>    -3.7247     0.0000    10.0000 </r>
       <r>    -3.5776     0.0000    10.0000 </r>
       <r>    -3.4305     0.0000    10.0000 </r>
       <r>    -3.2833     0.0000    10.0000 </r>
       <r>    -3.1362     0.0000    10.0000 </r>
       <r>    -2.9891    -0.0000    10.0000 </r>
       <r>    -2.8420    -0.0000    10.0000 </r>
       <r>    -2.6948    -0.0000    10.0000 </r>
       <r>    -2.5477    -0.0000    10.0000 </r>
       <r>    -2.4006    -0.0000    10.0000 </r>
       <r>    -2.2535    -0.0000    10.0000 </r>
       <r>    -2.1063    -0.0000    10.0000 </r>
       <r>    -1.9592    -0.0006     9.9999 </r>
       <r>    -1.8121    -0.0289     9.9957 </r>
       <r>    -1.6650    -0.3853     9.9390 </r>
       <r>    -1.5178    -0.3751     9.8838 </r>
       <r>    -1.3707     7.6635    11.0113 </r>
       <r>    -1.2236    15.6388    13.3121 </r>
       <r>    -1.0765     5.6227    14.1393 </r>
       <r>    -0.9294    -0.6502    14.0437 </r>
       <r>    -0.7822    -0.2800    14.0025 </r>
       <r>    -0.6351    -0.0166    14.0000 </r>
       <r>    -0.4880    -0.0003    14.0000 </r>
       <r>    -0.3409    -0.0006    13.9999 </r>
       <r>    -0.1937    -0.0248    13.9963 </r>
       <r>    -0.0466    -0.2548    13.9588 </r>
       <r>     0.1005     0.0849    13.9713 </r>
       <r>     0.2476     4.9337    14.6971 </r>
       <r>     0.3948     7.4688    15.7960 </r>
       <r>     0.5419     1.8609    16.0698 </r>
       <r>     0.6890    -0.3738    16.0148 </r>
       <r>     0.8361    -0.0957    16.0007 </r>
       <r>     0.9833    -0.0045    16.0000 </r>
       <r>     1.1304    -0.0001    16.0000 </r>
       <r>     1.2775    -0.0000    16.0000 </r>
       <r>     1.4246    -0.0000    16.0000 </r>
       <r>     1.5718    -0.0000    16.0000 </r>
       <r>     1.7189     0.0000    16.0000 </r>
       <r>     1.8660     0.0000    16.0000 </r>
       <r>     2.0131     0.0000    16.0000 </r>
       <r>     2.1603     0.0000    16.0000 </r>
       <r>     2.3074     0.0000    16.0000 </r>
       <r>     2.4545     0.0000    16.0000 </r>
       <r>     2.6016    -0.0000    16.0000 </r>
       <r>     2.7487    -0.0000    16.0000 </r>
       <r>     2.8959    -0.0000    16.0000 </r>
       <r>     3.0430    -0.0000    16.0000 </r>
       <r>     3.1901    -0.0000    16.0000 </r>
       <r>     3.3372    -0.0000    16.0000 </r>
       <r>     3.4844    -0.0000    16.0000 </r>
       <r>     3.6315    -0.0002    16.0000 </r>
       <r>     3.7786    -0.0091    15.9986 </r>
       <r>     3.9257    -0.1479    15.9769 </r>
       <r>     4.0729    -0.3282    15.9286 </r>
       <r>     4.2200     2.7488    16.3330 </r>
       <r>     4.3671     7.7364    17.4712 </r>
       <r>     4.5142     7.9046    18.6342 </r>
       <r>     4.6614     7.5154    19.7399 </r>
       <r>     4.8085     2.2632    20.0728 </r>
       <r>     4.9556    -0.3656    20.0191 </r>
       <r>     5.1027    -0.1238    20.0008 </r>
       <r>     5.2499    -0.0521    19.9932 </r>
       <r>     5.3970    -0.4984    19.9198 </r>
       <r>     5.5441    -0.1175    19.9025 </r>
       <r>     5.6912     9.2173    21.2586 </r>
       <r>     5.8383    18.4851    23.9782 </r>
       <r>     5.9855    11.8982    25.7287 </r>
       <r>     6.1326     2.5099    26.0980 </r>
       <r>     6.2797    -0.4829    26.0269 </r>
       <r>     6.4268    -0.1721    26.0016 </r>
       <r>     6.5740    -0.0108    26.0000 </r>
       <r>     6.7211    -0.0002    26.0000 </r>
       <r>     6.8682    -0.0000    26.0000 </r>
       <r>     7.0153    -0.0000    26.0000 </r>
       <r>     7.1625    -0.0000    26.0000 </r>
       <r>     7.3096    -0.0000    26.0000 </r>
       <r>     7.4567    -0.0010    25.9998 </r>
       <r>     7.6038    -0.0353    25.9946 </r>
       <r>     7.7510    -0.2982    25.9508 </r>
       <r>     7.8981     0.3676    26.0049 </r>
       <r>     8.0452     5.6718    26.8393 </r>
       <r>     8.1923     7.0359    27.8745 </r>
       <r>     8.3395     1.2916    28.0645 </r>
       <r>     8.4866    -0.4712    27.9952 </r>
       <r>     8.6337    -0.4426    27.9301 </r>
       <r>     8.7808     2.0061    28.2252 </r>
       <r>     8.9279     7.5509    29.3361 </r>
       <r>     9.0751     4.7510    30.0351 </r>
       <r>     9.2222     0.0289    30.0394 </r>
       <r>     9.3693    -0.2442    30.0034 </r>
       <r>     9.5164    -0.0230    30.0000 </r>
       <r>     9.6636    -0.0148    29.9979 </r>
       <r>     9.8107    -0.2567    29.9601 </r>
       <r>     9.9578    -0.7512    29.8496 </r>
       <r>    10.1049     4.6209    30.5294 </r>
       <r>    10.2521    15.8078    32.8551 </r>
       <r>    10.3992    16.9576    35.3500 </r>
       <r>    10.5463    17.6428    37.9457 </r>
       <r>    10.6934    12.3973    39.7696 </r>
       <r>    10.8406     2.3257    40.1118 </r>
       <r>    10.9877    -0.6355    40.0183 </r>
       <r>    11.1348    -0.6285    39.9258 </r>
       <r>    11.2819    -0.0419    39.9197 </r>
       <r>    11.4291     9.1790    41.2701 </r>
       <r>    11.5762    15.2244    43.5100 </r>
       <r>    11.7233     4.1654    44.1228 </r>
       <r>    11.8704    -1.0888    43.9626 </r>
       <r>    12.0175     2.1810    44.2835 </r>
       <r>    12.1647     7.7040    45.4169 </r>
       <r>    12.3118     4.2739    46.0457 </r>
       <r>    12.4589    -0.3039    46.0010 </r>
       <r>    12.6060    -0.3343    45.9518 </r>
       <r>    12.7532     4.1661    46.5648 </r>
       <r>    12.9003     7.7446    47.7042 </r>
       <r>    13.0474     2.4918    48.0708 </r>
       <r>    13.1945    -0.3495    48.0194 </r>
       <r>    13.3417    -0.1246    48.0010 </r>
       <r>    13.4888    -0.0068    48.0000 </r>
       <r>    13.6359    -0.0001    48.0000 </r>
       <r>    13.7830    -0.0000    48.0000 </r>
       <r>    13.9302    -0.0000    48.0000 </r>
       <r>    14.0773    -0.0000    48.0000 </r>
       <r>    14.2244     0.0000    48.0000 </r>
       <r>    14.3715     0.0000    48.0000 </r>
       <r>    14.5187     0.0000    48.0000 </r>
       <r>    14.6658     0.0000    48.0000 </r>
       <r>    14.8129     0.0000    48.0000 </r>
      </set>
     </set>
    </array>
   </total>
  </dos>
 </calculation>
 <structure name="finalpos" >
  <crystal>
   <varray name="basis" >
    <v>       5.00000000       0.00000000       0.00000000 </v>
    <v>       0.00000000       5.00000000       0.00000000 </v>
    <v>       0.00000000       0.00000000       5.00000000 </v>
   </varray>
   <i name="volume">    125.00000000 </i>
   <varray name="rec_basis" >
    <v>       0.20000000       0.00000000       0.00000000 </v>
    <v>       0.00000000       0.20000000       0.00000000 </v>
    <v>       0.00000000       0.00000000       0.20000000 </v>
   </varray>
  </crystal>
  <varray name="positions" >
   <v>       0.38000000       0.50000000       0.50000000 </v>
   <v>       0.62000000       0.50000000       0.50000000 </v>
  </varray>
 </structure>
</modeling>
