unknown system                          
   1.00000000000000     
     6.000000    0.000000    0.000000
     0.000000    6.000000    0.000000
     0.000000    0.000000    6.000000
   C    O 
     1     1
Direct
  0.400000  0.500000  0.500000
  0.600000  0.500000  0.500000
 
   56   56   56
 0.24025E-03 0.97649E-03 0.24017E-02 0.38177E-02 0.43863E-02 0.38888E-02 0.29046E-02 0.21054E-02 0.16742E-02 0.15824E-02
 0.19782E-02 0.28360E-02 0.35191E-02 0.33187E-02 0.24082E-02 0.17065E-02 0.16953E-02 0.18946E-02 0.17153E-02 0.13121E-02
 0.12069E-02 0.14627E-02 0.17331E-02 0.19045E-02 0.21511E-02 0.24279E-02 0.24347E-02 0.21518E-02 0.19515E-02 0.20200E-02
 0.20649E-02 0.18043E-02 0.13982E-02 0.11310E-02 0.97473E-03 0.79078E-03 0.71204E-03 0.92827E-03 0.12462E-02 0.12921E-02
 0.11033E-02 0.10995E-02 0.14281E-02 0.17376E-02 0.17041E-02 0.14022E-02 0.99811E-03 0.47377E-03 -.57163E-04 -.10891E-03
 0.65531E-03 0.17997E-02 0.24221E-02 0.20836E-02 0.11643E-02 0.37524E-03 0.57740E-03 0.10568E-02 0.20621E-02 0.33716E-02
 0.43038E-02 0.42338E-02 0.32587E-02 0.21069E-02 0.14580E-02 0.15384E-02 0.21972E-02 0.30204E-02 0.34284E-02 0.30790E-02
 0.22939E-02 0.17894E-02 0.18534E-02 0.20593E-02 0.19333E-02 0.15934E-02 0.14763E-02 0.16932E-02 0.20050E-02 0.22794E-02
 0.25753E-02 0.28174E-02 0.27840E-02 0.24972E-02 0.22843E-02 0.23113E-02 0.23365E-02 0.20982E-02 0.16934E-02 0.13648E-02
 0.11400E-02 0.94256E-03 0.87401E-03 0.10602E-02 0.13217E-02 0.13427E-02 0.11531E-02 0.11142E-02 0.13772E-02 0.16651E-02
 0.16801E-02 0.14275E-02 0.10152E-02 0.46905E-03 -.15594E-04 0.38091E-04 0.85362E-03 0.18985E-02 0.23189E-02 0.18670E-02
 0.10824E-02 0.58642E-03 0.11530E-02 0.11966E-02 0.14032E-02 0.23778E-02 0.38077E-02 0.44727E-02 0.36512E-02 0.20896E-02
 0.12205E-02 0.16339E-02 0.26481E-02 0.32505E-02 0.30883E-02 0.25285E-02 0.20981E-02 0.20501E-02 0.22917E-02 0.25328E-02
 0.25358E-02 0.23266E-02 0.21607E-02 0.22561E-02 0.26017E-02 0.30255E-02 0.33537E-02 0.34666E-02 0.33217E-02 0.30213E-02
 0.27809E-02 0.27191E-02 0.27164E-02 0.25660E-02 0.22214E-02 0.18095E-02 0.14576E-02 0.12278E-02 0.11716E-02 0.12893E-02
 0.14297E-02 0.13943E-02 0.11911E-02 0.10513E-02 0.11355E-02 0.13421E-02 0.14586E-02 0.13648E-02 0.10323E-02 0.52638E-03
 0.14619E-03 0.33016E-03 0.11333E-02 0.19292E-02 0.19951E-02 0.13891E-02 0.87591E-03 0.91341E-03 0.13281E-02 0.12573E-02
 0.10451E-02 0.15055E-02 0.26838E-02 0.35259E-02 0.31631E-02 0.21003E-02 0.16185E-02 0.21821E-02 0.29853E-02 0.30996E-02
 0.25565E-02 0.20697E-02 0.20818E-02 0.24538E-02 0.28808E-02 0.32038E-02 0.33322E-02 0.32090E-02 0.29697E-02 0.29153E-02
 0.31889E-02 0.35919E-02 0.38124E-02 0.37382E-02 0.34727E-02 0.31588E-02 0.28992E-02 0.27688E-02 0.27610E-02 0.27369E-02
 0.25336E-02 0.21429E-02 0.17264E-02 0.14555E-02 0.13812E-02 0.14323E-02 0.14739E-02 0.13820E-02 0.11361E-02 0.85810E-03
 0.71464E-03 0.77035E-03 0.94601E-03 0.10839E-02 0.10322E-02 0.76031E-03 0.47977E-03 0.54297E-03 0.10336E-02 0.15189E-02
 0.14733E-02 0.97804E-03 0.68836E-03 0.95621E-03 0.12443E-02 0.13232E-02 0.11546E-02 0.11085E-02 0.14146E-02 0.18549E-02
 0.21296E-02 0.23038E-02 0.26302E-02 0.30433E-02 0.31507E-02 0.27734E-02 0.22447E-02 0.20495E-02 0.23313E-02 0.28786E-02
 0.34367E-02 0.38511E-02 0.40070E-02 0.38687E-02 0.36097E-02 0.35232E-02 0.37190E-02 0.40026E-02 0.41086E-02 0.39668E-02
 0.36875E-02 0.33883E-02 0.31355E-02 0.29868E-02 0.29620E-02 0.29651E-02 0.28335E-02 0.25033E-02 0.20857E-02 0.17615E-02
 0.16253E-02 0.16296E-02 0.16348E-02 0.15058E-02 0.12025E-02 0.81208E-03 0.49111E-03 0.37110E-03 0.49793E-03 0.80242E-03
 0.10931E-02 0.11505E-02 0.93417E-03 0.67477E-03 0.64083E-03 0.80781E-03 0.89898E-03 0.79569E-03 0.72944E-03 0.93108E-03
 0.16149E-02 0.16550E-02 0.14380E-02 0.10489E-02 0.75773E-03 0.90846E-03 0.16503E-02 0.27157E-02 0.35457E-02 0.37363E-02
 0.33632E-02 0.28360E-02 0.25037E-02 0.24785E-02 0.27512E-02 0.32769E-02 0.38909E-02 0.43034E-02 0.43306E-02 0.40984E-02
 0.39198E-02 0.39861E-02 0.42405E-02 0.45151E-02 0.46871E-02 0.47008E-02 0.45517E-02 0.43069E-02 0.40840E-02 0.39500E-02
 0.38606E-02 0.37211E-02 0.34734E-02 0.31135E-02 0.26838E-02 0.22899E-02 0.20629E-02 0.20307E-02 0.20491E-02 0.19260E-02
 0.16050E-02 0.11842E-02 0.79363E-03 0.53913E-03 0.53182E-03 0.82543E-03 0.12641E-02 0.15068E-02 0.13239E-02 0.84408E-03
 0.42771E-03 0.31745E-03 0.48171E-03 0.76620E-03 0.10782E-02 0.13844E-02 0.26078E-02 0.23175E-02 0.16693E-02 0.10652E-02
 0.82131E-03 0.11214E-02 0.19634E-02 0.30366E-02 0.38249E-02 0.40118E-02 0.37375E-02 0.33705E-02 0.31358E-02 0.30897E-02
 0.33067E-02 0.38220E-02 0.44014E-02 0.46430E-02 0.44229E-02 0.40693E-02 0.39812E-02 0.42159E-02 0.45687E-02 0.49022E-02
 0.52029E-02 0.54049E-02 0.53964E-02 0.52112E-02 0.50264E-02 0.49202E-02 0.47777E-02 0.44878E-02 0.40917E-02 0.36699E-02
 0.32236E-02 0.27751E-02 0.24642E-02 0.23956E-02 0.24520E-02 0.23984E-02 0.21395E-02 0.17607E-02 0.13672E-02 0.10348E-02
 0.89343E-03 0.10596E-02 0.14194E-02 0.16340E-02 0.14654E-02 0.10096E-02 0.54719E-03 0.28456E-03 0.33022E-03 0.76622E-03
 0.15342E-02 0.22946E-02 0.34587E-02 0.29486E-02 0.18836E-02 0.11166E-02 0.10757E-02 0.15825E-02 0.22864E-02 0.30033E-02
 0.36392E-02 0.40465E-02 0.41117E-02 0.39107E-02 0.36946E-02 0.37300E-02 0.41310E-02 0.47452E-02 0.51977E-02 0.51739E-02
 0.47376E-02 0.42917E-02 0.41682E-02 0.43383E-02 0.45771E-02 0.47762E-02 0.49581E-02 0.50844E-02 0.50524E-02 0.48827E-02
 0.47318E-02 0.46680E-02 0.45772E-02 0.43493E-02 0.40262E-02 0.36858E-02 0.33088E-02 0.28832E-02 0.25421E-02 0.24386E-02
 0.25197E-02 0.25585E-02 0.24014E-02 0.20711E-02 0.16603E-02 0.12704E-02 0.10522E-02 0.11237E-02 0.13784E-02 0.15178E-02
 0.13641E-02 0.10282E-02 0.70108E-03 0.45342E-03 0.38479E-03 0.77499E-03 0.17697E-02 0.29357E-02 0.33752E-02 0.30485E-02
 0.20907E-02 0.13286E-02 0.12453E-02 0.16643E-02 0.22193E-02 0.28159E-02 0.34910E-02 0.40759E-02 0.43015E-02 0.42016E-02
 0.41763E-02 0.45752E-02 0.53252E-02 0.60225E-02 0.63110E-02 0.61308E-02 0.56854E-02 0.52488E-02 0.49773E-02 0.48404E-02
 0.47117E-02 0.45200E-02 0.42904E-02 0.40604E-02 0.38289E-02 0.36104E-02 0.34697E-02 0.34456E-02 0.34832E-02 0.34937E-02
 0.34436E-02 0.33315E-02 0.31285E-02 0.28282E-02 0.25342E-02 0.23954E-02 0.24296E-02 0.24817E-02 0.23779E-02 0.20685E-02
 0.16233E-02 0.11795E-02 0.91290E-03 0.94074E-03 0.11699E-02 0.13259E-02 0.12249E-02 0.95556E-03 0.71309E-03 0.56466E-03
 0.53776E-03 0.83457E-03 0.16572E-02 0.27461E-02 0.24743E-02 0.25258E-02 0.21613E-02 0.17586E-02 0.16563E-02 0.18919E-02
 0.23434E-02 0.29369E-02 0.35912E-02 0.41159E-02 0.43803E-02 0.45579E-02 0.50026E-02 0.58271E-02 0.67350E-02 0.73344E-02
 0.75117E-02 0.74239E-02 0.72315E-02 0.69685E-02 0.66222E-02 0.62040E-02 0.57171E-02 0.51487E-02 0.45308E-02 0.39546E-02
 0.34950E-02 0.31661E-02 0.29641E-02 0.29039E-02 0.29787E-02 0.31239E-02 0.32547E-02 0.33160E-02 0.32807E-02 0.31393E-02
 0.29293E-02 0.27401E-02 0.26357E-02 0.25797E-02 0.24640E-02 0.22052E-02 0.18035E-02 0.13480E-02 0.99742E-03 0.89964E-03
 0.10480E-02 0.12370E-02 0.12418E-02 0.10482E-02 0.83453E-03 0.74405E-03 0.78522E-03 0.96973E-03 0.13811E-02 0.19830E-02
 0.15624E-02 0.18411E-02 0.21023E-02 0.23361E-02 0.25792E-02 0.28596E-02 0.31748E-02 0.35021E-02 0.38190E-02 0.41495E-02
 0.46077E-02 0.53337E-02 0.63174E-02 0.73145E-02 0.80222E-02 0.83574E-02 0.85066E-02 0.86816E-02 0.88856E-02 0.89541E-02
 0.87629E-02 0.83284E-02 0.77356E-02 0.70545E-02 0.63432E-02 0.56680E-02 0.50786E-02 0.45894E-02 0.42066E-02 0.39508E-02
 0.38288E-02 0.38067E-02 0.38318E-02 0.38667E-02 0.38787E-02 0.38171E-02 0.36414E-02 0.33758E-02 0.31083E-02 0.29215E-02
 0.28222E-02 0.27295E-02 0.25266E-02 0.21542E-02 0.16905E-02 0.13253E-02 0.12064E-02 0.12967E-02 0.14133E-02 0.14176E-02
 0.13298E-02 0.12476E-02 0.12108E-02 0.11989E-02 0.12219E-02 0.13365E-02 0.12194E-02 0.15483E-02 0.21698E-02 0.29624E-02
 0.37048E-02 0.41921E-02 0.43389E-02 0.42303E-02 0.41228E-02 0.43591E-02 0.51630E-02 0.64295E-02 0.77332E-02 0.86246E-02
 0.89712E-02 0.90224E-02 0.91540E-02 0.95557E-02 0.10128E-01 0.10609E-01 0.10771E-01 0.10554E-01 0.10061E-01 0.94675E-02
 0.88892E-02 0.83298E-02 0.77385E-02 0.70995E-02 0.64523E-02 0.58464E-02 0.53122E-02 0.48804E-02 0.45901E-02 0.44470E-02
 0.43819E-02 0.42737E-02 0.40300E-02 0.36588E-02 0.32779E-02 0.30502E-02 0.30660E-02 0.32449E-02 0.33549E-02 0.31731E-02
 0.26680E-02 0.20389E-02 0.15721E-02 0.14405E-02 0.16073E-02 0.18806E-02 0.20533E-02 0.20230E-02 0.18206E-02 0.15491E-02
 0.13063E-02 0.11680E-02 0.14078E-02 0.17840E-02 0.25392E-02 0.35567E-02 0.45433E-02 0.51654E-02 0.52527E-02 0.49465E-02
 0.46872E-02 0.49814E-02 0.60372E-02 0.75551E-02 0.89134E-02 0.96315E-02 0.97028E-02 0.95253E-02 0.95619E-02 0.10048E-01
 0.10902E-01 0.11801E-01 0.12366E-01 0.12395E-01 0.11993E-01 0.11458E-01 0.11012E-01 0.10642E-01 0.10191E-01 0.95449E-02
 0.86984E-02 0.77137E-02 0.66907E-02 0.57759E-02 0.51153E-02 0.47458E-02 0.45444E-02 0.43112E-02 0.39148E-02 0.33816E-02
 0.28842E-02 0.26437E-02 0.27827E-02 0.32051E-02 0.36142E-02 0.36895E-02 0.33015E-02 0.26003E-02 0.19259E-02 0.16089E-02
 0.17707E-02 0.22382E-02 0.26539E-02 0.27297E-02 0.24400E-02 0.19831E-02 0.15837E-02 0.13685E-02 0.18579E-02 0.22910E-02
 0.30453E-02 0.40169E-02 0.50040E-02 0.57416E-02 0.60192E-02 0.58757E-02 0.57018E-02 0.60353E-02 0.71262E-02 0.86735E-02
 0.10028E-01 0.10684E-01 0.10619E-01 0.10247E-01 0.10122E-01 0.10622E-01 0.11735E-01 0.13040E-01 0.13947E-01 0.14108E-01
 0.13649E-01 0.13016E-01 0.12584E-01 0.12403E-01 0.12245E-01 0.11829E-01 0.10992E-01 0.97509E-02 0.83023E-02 0.69478E-02
 0.59467E-02 0.53632E-02 0.50291E-02 0.46612E-02 0.40576E-02 0.32445E-02 0.24725E-02 0.20555E-02 0.21534E-02 0.26552E-02
 0.32384E-02 0.35469E-02 0.33776E-02 0.27977E-02 0.21362E-02 0.18016E-02 0.19943E-02 0.25373E-02 0.30146E-02 0.31077E-02
 0.28087E-02 0.23411E-02 0.19431E-02 0.17568E-02 0.24673E-02 0.28328E-02 0.34155E-02 0.42379E-02 0.52761E-02 0.63426E-02
 0.70836E-02 0.72727E-02 0.71532E-02 0.73495E-02 0.83180E-02 0.98914E-02 0.11399E-01 0.12210E-01 0.12175E-01 0.11689E-01
 0.11433E-01 0.11972E-01 0.13370E-01 0.15070E-01 0.16248E-01 0.16404E-01 0.15708E-01 0.14781E-01 0.14196E-01 0.14116E-01
 0.14284E-01 0.14235E-01 0.13587E-01 0.12259E-01 0.10534E-01 0.88818E-02 0.76779E-02 0.70009E-02 0.66206E-02 0.61493E-02
 0.52855E-02 0.40410E-02 0.27750E-02 0.19554E-02 0.18201E-02 0.22346E-02 0.28259E-02 0.32112E-02 0.31642E-02 0.27216E-02
 0.22067E-02 0.20401E-02 0.23809E-02 0.29489E-02 0.32796E-02 0.31639E-02 0.27814E-02 0.24353E-02 0.22735E-02 0.22893E-02
 0.32476E-02 0.34125E-02 0.36193E-02 0.42053E-02 0.53986E-02 0.70147E-02 0.84234E-02 0.90314E-02 0.89013E-02 0.87953E-02
 0.95011E-02 0.11119E-01 0.13003E-01 0.14318E-01 0.14651E-01 0.14272E-01 0.13966E-01 0.14534E-01 0.16176E-01 0.18237E-01
 0.19636E-01 0.19683E-01 0.18562E-01 0.17092E-01 0.16081E-01 0.15846E-01 0.16127E-01 0.16313E-01 0.15828E-01 0.14497E-01
 0.12668E-01 0.10960E-01 0.98378E-02 0.93436E-02 0.91174E-02 0.86246E-02 0.74765E-02 0.57209E-02 0.38815E-02 0.26180E-02
 0.22423E-02 0.25335E-02 0.29842E-02 0.31737E-02 0.29619E-02 0.25060E-02 0.21783E-02 0.23270E-02 0.29339E-02 0.35261E-02
 0.35808E-02 0.30566E-02 0.24347E-02 0.22170E-02 0.24772E-02 0.29193E-02 0.41509E-02 0.41122E-02 0.38210E-02 0.40332E-02
 0.53097E-02 0.74950E-02 0.96842E-02 0.10874E-01 0.10832E-01 0.10350E-01 0.10602E-01 0.12170E-01 0.14615E-01 0.16857E-01
 0.17993E-01 0.17966E-01 0.17623E-01 0.18088E-01 0.19827E-01 0.22166E-01 0.23767E-01 0.23672E-01 0.22006E-01 0.19766E-01
 0.18038E-01 0.17326E-01 0.17383E-01 0.17496E-01 0.16975E-01 0.15604E-01 0.13779E-01 0.12211E-01 0.11414E-01 0.11363E-01
 0.11516E-01 0.11147E-01 0.97889E-02 0.75920E-02 0.53048E-02 0.37842E-02 0.33605E-02 0.36293E-02 0.38577E-02 0.35848E-02
 0.28896E-02 0.22289E-02 0.20897E-02 0.26540E-02 0.35965E-02 0.42149E-02 0.39576E-02 0.29579E-02 0.19935E-02 0.18219E-02
 0.25340E-02 0.35441E-02 0.51268E-02 0.49221E-02 0.41103E-02 0.38889E-02 0.51757E-02 0.78749E-02 0.10858E-01 0.12725E-01
 0.12863E-01 0.11986E-01 0.11667E-01 0.13129E-01 0.16258E-01 0.19673E-01 0.21811E-01 0.22173E-01 0.21681E-01 0.21859E-01
 0.23519E-01 0.26038E-01 0.27854E-01 0.27711E-01 0.25586E-01 0.22597E-01 0.20102E-01 0.18809E-01 0.18494E-01 0.18359E-01
 0.17650E-01 0.16143E-01 0.14257E-01 0.12751E-01 0.12195E-01 0.12551E-01 0.13133E-01 0.13005E-01 0.11594E-01 0.91409E-02
 0.66164E-02 0.50572E-02 0.47827E-02 0.51660E-02 0.52014E-02 0.43673E-02 0.30148E-02 0.20072E-02 0.20107E-02 0.30104E-02
 0.43149E-02 0.49839E-02 0.44552E-02 0.30093E-02 0.16669E-02 0.14528E-02 0.25602E-02 0.41685E-02 0.62246E-02 0.58117E-02
 0.44753E-02 0.38964E-02 0.52931E-02 0.85248E-02 0.12208E-01 0.14624E-01 0.14879E-01 0.13647E-01 0.12866E-01 0.14320E-01
 0.18147E-01 0.22624E-01 0.25569E-01 0.26126E-01 0.25347E-01 0.25141E-01 0.26616E-01 0.29225E-01 0.31267E-01 0.31241E-01
 0.28948E-01 0.25536E-01 0.22566E-01 0.20928E-01 0.20420E-01 0.20150E-01 0.19273E-01 0.17521E-01 0.15317E-01 0.13491E-01
 0.12750E-01 0.13145E-01 0.13934E-01 0.14013E-01 0.12688E-01 0.10207E-01 0.76483E-02 0.61611E-02 0.60874E-02 0.66588E-02
 0.66246E-02 0.53463E-02 0.33764E-02 0.19712E-02 0.20189E-02 0.33659E-02 0.50015E-02 0.57679E-02 0.50642E-02 0.32487E-02
 0.15376E-02 0.12471E-02 0.27289E-02 0.49344E-02 0.74781E-02 0.68124E-02 0.49579E-02 0.40997E-02 0.56844E-02 0.94131E-02
 0.13622E-01 0.16399E-01 0.16747E-01 0.15354E-01 0.14379E-01 0.15943E-01 0.20305E-01 0.25485E-01 0.28886E-01 0.29467E-01
 0.28415E-01 0.27891E-01 0.29179E-01 0.31784E-01 0.33972E-01 0.34127E-01 0.31919E-01 0.28460E-01 0.25401E-01 0.23742E-01
 0.23294E-01 0.23063E-01 0.22063E-01 0.19928E-01 0.17096E-01 0.14550E-01 0.13206E-01 0.13242E-01 0.13903E-01 0.14020E-01
 0.12850E-01 0.10588E-01 0.82363E-02 0.69122E-02 0.70014E-02 0.77405E-02 0.77453E-02 0.62371E-02 0.38501E-02 0.21238E-02
 0.21408E-02 0.36729E-02 0.55041E-02 0.63505E-02 0.55758E-02 0.35383E-02 0.15662E-02 0.12448E-02 0.31085E-02 0.58965E-02
 0.87342E-02 0.78956E-02 0.56162E-02 0.44719E-02 0.60946E-02 0.10082E-01 0.14617E-01 0.17731E-01 0.18385E-01 0.17189E-01
 0.16293E-01 0.17949E-01 0.22543E-01 0.28044E-01 0.31702E-01 0.32393E-01 0.31339E-01 0.30753E-01 0.31937E-01 0.34431E-01
 0.36571E-01 0.36779E-01 0.34680E-01 0.31314E-01 0.28303E-01 0.26650E-01 0.26152E-01 0.25770E-01 0.24465E-01 0.21857E-01
 0.18444E-01 0.15328E-01 0.13516E-01 0.13175E-01 0.13508E-01 0.13398E-01 0.12242E-01 0.10270E-01 0.83182E-02 0.72922E-02
 0.75253E-02 0.83332E-02 0.83604E-02 0.67764E-02 0.42291E-02 0.23778E-02 0.23750E-02 0.39188E-02 0.57092E-02 0.64959E-02
 0.57064E-02 0.36660E-02 0.16691E-02 0.14224E-02 0.36161E-02 0.68848E-02 0.97256E-02 0.88613E-02 0.63518E-02 0.49445E-02
 0.63978E-02 0.10344E-01 0.15017E-01 0.18526E-01 0.19780E-01 0.19157E-01 0.18578E-01 0.20267E-01 0.24778E-01 0.30279E-01
 0.34141E-01 0.35247E-01 0.34697E-01 0.34487E-01 0.35755E-01 0.38088E-01 0.40035E-01 0.40185E-01 0.38143E-01 0.34795E-01
 0.31598E-01 0.29452E-01 0.28165E-01 0.26885E-01 0.24923E-01 0.22237E-01 0.19424E-01 0.17356E-01 0.16548E-01 0.16647E-01
 0.16596E-01 0.15482E-01 0.13258E-01 0.10660E-01 0.86006E-02 0.76878E-02 0.79520E-02 0.86591E-02 0.85787E-02 0.69766E-02
 0.44993E-02 0.27449E-02 0.27666E-02 0.41675E-02 0.56711E-02 0.62140E-02 0.54077E-02 0.35589E-02 0.17914E-02 0.17275E-02
 0.41307E-02 0.76729E-02 0.10319E-01 0.95057E-02 0.69782E-02 0.54645E-02 0.67340E-02 0.10490E-01 0.15141E-01 0.18988E-01
 0.20954E-01 0.21154E-01 0.21125E-01 0.22869E-01 0.27050E-01 0.32234E-01 0.36227E-01 0.38079E-01 0.38629E-01 0.39356E-01
 0.41056E-01 0.43427E-01 0.45410E-01 0.45826E-01 0.44122E-01 0.40775E-01 0.36873E-01 0.33191E-01 0.29796E-01 0.26593E-01
 0.24001E-01 0.22925E-01 0.24086E-01 0.27341E-01 0.31394E-01 0.34082E-01 0.33429E-01 0.28973E-01 0.22227E-01 0.15648E-01
 0.11069E-01 0.89460E-02 0.86443E-02 0.89721E-02 0.86641E-02 0.70932E-02 0.48590E-02 0.33460E-02 0.33904E-02 0.45182E-02
 0.55729E-02 0.57567E-02 0.49094E-02 0.33350E-02 0.19341E-02 0.21127E-02 0.46083E-02 0.81988E-02 0.10615E-01 0.98705E-02
 0.74835E-02 0.60411E-02 0.72079E-02 0.10729E-01 0.15232E-01 0.19295E-01 0.21950E-01 0.23086E-01 0.23762E-01 0.25574E-01
 0.29210E-01 0.33773E-01 0.37776E-01 0.40599E-01 0.42738E-01 0.44969E-01 0.47667E-01 0.50741E-01 0.53651E-01 0.55394E-01
 0.54925E-01 0.51854E-01 0.46612E-01 0.39988E-01 0.32931E-01 0.27056E-01 0.24924E-01 0.29121E-01 0.40454E-01 0.56597E-01
 0.72268E-01 0.81188E-01 0.79176E-01 0.66634E-01 0.48447E-01 0.31006E-01 0.18630E-01 0.12112E-01 0.97697E-02 0.92516E-02
 0.86897E-02 0.72681E-02 0.54099E-02 0.42076E-02 0.42486E-02 0.50207E-02 0.55541E-02 0.53418E-02 0.44382E-02 0.31424E-02
 0.21355E-02 0.25664E-02 0.50785E-02 0.85579E-02 0.10809E-01 0.10188E-01 0.80448E-02 0.67166E-02 0.77227E-02 0.10906E-01
 0.15186E-01 0.19443E-01 0.22809E-01 0.24916E-01 0.26280E-01 0.28029E-01 0.30895E-01 0.34628E-01 0.38565E-01 0.42439E-01
 0.46399E-01 0.50568E-01 0.55019E-01 0.59960E-01 0.65336E-01 0.70095E-01 0.72268E-01 0.70078E-01 0.63011E-01 0.52141E-01
 0.40168E-01 0.31585E-01 0.32200E-01 0.46963E-01 0.76605E-01 0.11518     0.15079     0.17022     0.16550     0.13839    
 0.99377E-01 0.61528E-01 0.33741E-01 0.18004E-01 0.11316E-01 0.92661E-02 0.84665E-02 0.73549E-02 0.59962E-02 0.51788E-02
 0.52420E-02 0.56416E-02 0.56262E-02 0.50064E-02 0.40479E-02 0.30356E-02 0.24303E-02 0.31060E-02 0.55795E-02 0.88592E-02
 0.11010E-01 0.10585E-01 0.87370E-02 0.74743E-02 0.81917E-02 0.10930E-01 0.14959E-01 0.19439E-01 0.23532E-01 0.26564E-01
 0.28486E-01 0.29989E-01 0.31928E-01 0.34760E-01 0.38588E-01 0.43417E-01 0.49115E-01 0.55418E-01 0.62357E-01 0.70474E-01
 0.79982E-01 0.89457E-01 0.95661E-01 0.95110E-01 0.86195E-01 0.70515E-01 0.53206E-01 0.42591E-01 0.48582E-01 0.78940E-01
 0.13398     0.20280     0.26481     0.29781     0.28893     0.24165     0.17365     0.10677     0.56359E-01 0.26638E-01
 0.13251E-01 0.89336E-02 0.78581E-02 0.71681E-02 0.64199E-02 0.60900E-02 0.62460E-02 0.62976E-02 0.57430E-02 0.47366E-02
 0.37433E-02 0.30190E-02 0.28116E-02 0.37188E-02 0.61169E-02 0.91562E-02 0.11208E-01 0.10962E-01 0.93915E-02 0.81938E-02
 0.86625E-02 0.11017E-01 0.14810E-01 0.19425E-01 0.24078E-01 0.27861E-01 0.30224E-01 0.31446E-01 0.32500E-01 0.34481E-01
 0.38132E-01 0.43647E-01 0.50735E-01 0.59038E-01 0.68777E-01 0.80781E-01 0.95274E-01 0.11022     0.12104     0.12264    
 0.11237     0.92423E-01 0.70445E-01 0.58760E-01 0.71562E-01 0.11938     0.20178     0.30238     0.39157     0.43812    
 0.42440     0.35562     0.25652     0.15792     0.82230E-01 0.36548E-01 0.15417E-01 0.84662E-02 0.70373E-02 0.67659E-02
 0.66603E-02 0.68663E-02 0.71498E-02 0.68913E-02 0.58762E-02 0.45780E-02 0.35846E-02 0.30978E-02 0.32127E-02 0.43163E-02
 0.66448E-02 0.94543E-02 0.11350E-01 0.11189E-01 0.98059E-02 0.87087E-02 0.91055E-02 0.11274E-01 0.14892E-01 0.19490E-01
 0.24406E-01 0.28659E-01 0.31353E-01 0.32415E-01 0.32848E-01 0.34186E-01 0.37623E-01 0.43498E-01 0.51466E-01 0.61228E-01
 0.73245E-01 0.88537E-01 0.10720     0.12662     0.14122     0.14472     0.13379     0.11102     0.85926E-01 0.73912E-01
 0.92496E-01 0.15430     0.25807     0.38305     0.49269     0.54917     0.53149     0.44609     0.32284     0.19927    
 0.10335     0.44730E-01 0.17264E-01 0.81293E-02 0.63624E-02 0.63916E-02 0.67959E-02 0.74334E-02 0.78108E-02 0.73158E-02
 0.59959E-02 0.45456E-02 0.35768E-02 0.32259E-02 0.35241E-02 0.47576E-02 0.70538E-02 0.97007E-02 0.11400E-01 0.11255E-01
 0.99364E-02 0.88945E-02 0.93010E-02 0.11431E-01 0.14982E-01 0.19540E-01 0.24513E-01 0.28921E-01 0.31747E-01 0.32770E-01
 0.32983E-01 0.34075E-01 0.37410E-01 0.43387E-01 0.51654E-01 0.61955E-01 0.74857E-01 0.91446E-01 0.11175     0.13290    
 0.14897     0.15324     0.14214     0.11840     0.92227E-01 0.80176E-01 0.10103     0.16820     0.28008     0.41421    
 0.53145     0.59157     0.57235     0.48069     0.34832     0.21524     0.11155     0.47933E-01 0.18009E-01 0.80182E-02
 0.61079E-02 0.62454E-02 0.68463E-02 0.76498E-02 0.80587E-02 0.74716E-02 0.60466E-02 0.45555E-02 0.36016E-02 0.32903E-02
 0.36421E-02 0.49203E-02 0.72108E-02 0.98000E-02 0.11350E-01 0.11189E-01 0.98059E-02 0.87087E-02 0.91055E-02 0.11274E-01
 0.14892E-01 0.19490E-01 0.24406E-01 0.28659E-01 0.31353E-01 0.32415E-01 0.32848E-01 0.34186E-01 0.37623E-01 0.43498E-01
 0.51466E-01 0.61228E-01 0.73245E-01 0.88537E-01 0.10720     0.12662     0.14122     0.14472     0.13379     0.11102    
 0.85926E-01 0.73912E-01 0.92496E-01 0.15430     0.25807     0.38305     0.49269     0.54917     0.53149     0.44609    
 0.32284     0.19927     0.10335     0.44730E-01 0.17264E-01 0.81293E-02 0.63624E-02 0.63916E-02 0.67959E-02 0.74334E-02
 0.78108E-02 0.73158E-02 0.59959E-02 0.45456E-02 0.35768E-02 0.32259E-02 0.35241E-02 0.47576E-02 0.70538E-02 0.97007E-02
 0.11208E-01 0.10962E-01 0.93915E-02 0.81938E-02 0.86625E-02 0.11017E-01 0.14810E-01 0.19425E-01 0.24078E-01 0.27861E-01
 0.30224E-01 0.31446E-01 0.32500E-01 0.34481E-01 0.38132E-01 0.43647E-01 0.50735E-01 0.59038E-01 0.68777E-01 0.80781E-01
 0.95274E-01 0.11022     0.12104     0.12264     0.11237     0.92423E-01 0.70445E-01 0.58760E-01 0.71562E-01 0.11938    
 0.20178     0.30238     0.39157     0.43812     0.42440     0.35562     0.25652     0.15792     0.82230E-01 0.36548E-01
 0.15417E-01 0.84662E-02 0.70373E-02 0.67659E-02 0.66603E-02 0.68663E-02 0.71498E-02 0.68913E-02 0.58762E-02 0.45780E-02
 0.35846E-02 0.30978E-02 0.32127E-02 0.43163E-02 0.66448E-02 0.94543E-02 0.11010E-01 0.10585E-01 0.87370E-02 0.74743E-02
 0.81917E-02 0.10930E-01 0.14959E-01 0.19439E-01 0.23532E-01 0.26564E-01 0.28486E-01 0.29989E-01 0.31928E-01 0.34760E-01
 0.38588E-01 0.43417E-01 0.49115E-01 0.55418E-01 0.62357E-01 0.70474E-01 0.79982E-01 0.89457E-01 0.95661E-01 0.95110E-01
 0.86195E-01 0.70515E-01 0.53206E-01 0.42591E-01 0.48582E-01 0.78940E-01 0.13398     0.20280     0.26481     0.29781    
 0.28893     0.24165     0.17365     0.10677     0.56359E-01 0.26638E-01 0.13251E-01 0.89336E-02 0.78581E-02 0.71681E-02
 0.64199E-02 0.60900E-02 0.62460E-02 0.62976E-02 0.57430E-02 0.47366E-02 0.37433E-02 0.30190E-02 0.28116E-02 0.37188E-02
 0.61169E-02 0.91562E-02 0.10809E-01 0.10188E-01 0.80448E-02 0.67166E-02 0.77227E-02 0.10906E-01 0.15186E-01 0.19443E-01
 0.22809E-01 0.24916E-01 0.26280E-01 0.28029E-01 0.30895E-01 0.34628E-01 0.38565E-01 0.42439E-01 0.46399E-01 0.50568E-01
 0.55019E-01 0.59960E-01 0.65336E-01 0.70095E-01 0.72268E-01 0.70078E-01 0.63011E-01 0.52141E-01 0.40168E-01 0.31585E-01
 0.32200E-01 0.46963E-01 0.76605E-01 0.11518     0.15079     0.17022     0.16550     0.13839     0.99377E-01 0.61528E-01
 0.33741E-01 0.18004E-01 0.11316E-01 0.92661E-02 0.84665E-02 0.73549E-02 0.59962E-02 0.51788E-02 0.52420E-02 0.56416E-02
 0.56262E-02 0.50064E-02 0.40479E-02 0.30356E-02 0.24303E-02 0.31060E-02 0.55795E-02 0.88592E-02 0.10615E-01 0.98705E-02
 0.74835E-02 0.60411E-02 0.72079E-02 0.10729E-01 0.15232E-01 0.19295E-01 0.21950E-01 0.23086E-01 0.23762E-01 0.25574E-01
 0.29210E-01 0.33773E-01 0.37776E-01 0.40599E-01 0.42738E-01 0.44969E-01 0.47667E-01 0.50741E-01 0.53651E-01 0.55394E-01
 0.54925E-01 0.51854E-01 0.46612E-01 0.39988E-01 0.32931E-01 0.27056E-01 0.24924E-01 0.29121E-01 0.40454E-01 0.56597E-01
 0.72268E-01 0.81188E-01 0.79176E-01 0.66634E-01 0.48447E-01 0.31006E-01 0.18630E-01 0.12112E-01 0.97697E-02 0.92516E-02
 0.86897E-02 0.72681E-02 0.54099E-02 0.42076E-02 0.42486E-02 0.50207E-02 0.55541E-02 0.53418E-02 0.44382E-02 0.31424E-02
 0.21355E-02 0.25664E-02 0.50785E-02 0.85579E-02 0.10319E-01 0.95057E-02 0.69782E-02 0.54645E-02 0.67340E-02 0.10490E-01
 0.15141E-01 0.18988E-01 0.20954E-01 0.21154E-01 0.21125E-01 0.22869E-01 0.27050E-01 0.32234E-01 0.36227E-01 0.38079E-01
 0.38629E-01 0.39356E-01 0.41056E-01 0.43427E-01 0.45410E-01 0.45826E-01 0.44122E-01 0.40775E-01 0.36873E-01 0.33191E-01
 0.29796E-01 0.26593E-01 0.24001E-01 0.22925E-01 0.24086E-01 0.27341E-01 0.31394E-01 0.34082E-01 0.33429E-01 0.28973E-01
 0.22227E-01 0.15648E-01 0.11069E-01 0.89460E-02 0.86443E-02 0.89721E-02 0.86641E-02 0.70932E-02 0.48590E-02 0.33460E-02
 0.33904E-02 0.45182E-02 0.55729E-02 0.57567E-02 0.49094E-02 0.33350E-02 0.19341E-02 0.21127E-02 0.46083E-02 0.81988E-02
 0.97256E-02 0.88613E-02 0.63518E-02 0.49445E-02 0.63978E-02 0.10344E-01 0.15017E-01 0.18526E-01 0.19780E-01 0.19157E-01
 0.18578E-01 0.20267E-01 0.24778E-01 0.30279E-01 0.34141E-01 0.35247E-01 0.34697E-01 0.34487E-01 0.35755E-01 0.38088E-01
 0.40035E-01 0.40185E-01 0.38143E-01 0.34795E-01 0.31598E-01 0.29452E-01 0.28165E-01 0.26885E-01 0.24923E-01 0.22237E-01
 0.19424E-01 0.17356E-01 0.16548E-01 0.16647E-01 0.16596E-01 0.15482E-01 0.13258E-01 0.10660E-01 0.86006E-02 0.76878E-02
 0.79520E-02 0.86591E-02 0.85787E-02 0.69766E-02 0.44993E-02 0.27449E-02 0.27666E-02 0.41675E-02 0.56711E-02 0.62140E-02
 0.54077E-02 0.35589E-02 0.17914E-02 0.17275E-02 0.41307E-02 0.76729E-02 0.87342E-02 0.78956E-02 0.56162E-02 0.44719E-02
 0.60946E-02 0.10082E-01 0.14617E-01 0.17731E-01 0.18385E-01 0.17189E-01 0.16293E-01 0.17949E-01 0.22543E-01 0.28044E-01
 0.31702E-01 0.32393E-01 0.31339E-01 0.30753E-01 0.31937E-01 0.34431E-01 0.36571E-01 0.36779E-01 0.34680E-01 0.31314E-01
 0.28303E-01 0.26650E-01 0.26152E-01 0.25770E-01 0.24465E-01 0.21857E-01 0.18444E-01 0.15328E-01 0.13516E-01 0.13175E-01
 0.13508E-01 0.13398E-01 0.12242E-01 0.10270E-01 0.83182E-02 0.72922E-02 0.75253E-02 0.83332E-02 0.83604E-02 0.67764E-02
 0.42291E-02 0.23778E-02 0.23750E-02 0.39188E-02 0.57092E-02 0.64959E-02 0.57064E-02 0.36660E-02 0.16691E-02 0.14224E-02
 0.36161E-02 0.68848E-02 0.74781E-02 0.68124E-02 0.49579E-02 0.40997E-02 0.56844E-02 0.94131E-02 0.13622E-01 0.16399E-01
 0.16747E-01 0.15354E-01 0.14379E-01 0.15943E-01 0.20305E-01 0.25485E-01 0.28886E-01 0.29467E-01 0.28415E-01 0.27891E-01
 0.29179E-01 0.31784E-01 0.33972E-01 0.34127E-01 0.31919E-01 0.28460E-01 0.25401E-01 0.23742E-01 0.23294E-01 0.23063E-01
 0.22063E-01 0.19928E-01 0.17096E-01 0.14550E-01 0.13206E-01 0.13242E-01 0.13903E-01 0.14020E-01 0.12850E-01 0.10588E-01
 0.82363E-02 0.69122E-02 0.70014E-02 0.77405E-02 0.77453E-02 0.62371E-02 0.38501E-02 0.21238E-02 0.21408E-02 0.36729E-02
 0.55041E-02 0.63505E-02 0.55758E-02 0.35383E-02 0.15662E-02 0.12448E-02 0.31085E-02 0.58965E-02 0.62246E-02 0.58117E-02
 0.44753E-02 0.38964E-02 0.52931E-02 0.85248E-02 0.12208E-01 0.14624E-01 0.14879E-01 0.13647E-01 0.12866E-01 0.14320E-01
 0.18147E-01 0.22624E-01 0.25569E-01 0.26126E-01 0.25347E-01 0.25141E-01 0.26616E-01 0.29225E-01 0.31267E-01 0.31241E-01
 0.28948E-01 0.25536E-01 0.22566E-01 0.20928E-01 0.20420E-01 0.20150E-01 0.19273E-01 0.17521E-01 0.15317E-01 0.13491E-01
 0.12750E-01 0.13145E-01 0.13934E-01 0.14013E-01 0.12688E-01 0.10207E-01 0.76483E-02 0.61611E-02 0.60874E-02 0.66588E-02
 0.66246E-02 0.53463E-02 0.33764E-02 0.19712E-02 0.20189E-02 0.33659E-02 0.50015E-02 0.57679E-02 0.50642E-02 0.32487E-02
 0.15376E-02 0.12471E-02 0.27289E-02 0.49344E-02 0.51268E-02 0.49221E-02 0.41103E-02 0.38889E-02 0.51757E-02 0.78749E-02
 0.10858E-01 0.12725E-01 0.12863E-01 0.11986E-01 0.11667E-01 0.13129E-01 0.16258E-01 0.19673E-01 0.21811E-01 0.22173E-01
 0.21681E-01 0.21859E-01 0.23519E-01 0.26038E-01 0.27854E-01 0.27711E-01 0.25586E-01 0.22597E-01 0.20102E-01 0.18809E-01
 0.18494E-01 0.18359E-01 0.17650E-01 0.16143E-01 0.14257E-01 0.12751E-01 0.12195E-01 0.12551E-01 0.13133E-01 0.13005E-01
 0.11594E-01 0.91409E-02 0.66164E-02 0.50572E-02 0.47827E-02 0.51660E-02 0.52014E-02 0.43673E-02 0.30148E-02 0.20072E-02
 0.20107E-02 0.30104E-02 0.43149E-02 0.49839E-02 0.44552E-02 0.30093E-02 0.16669E-02 0.14528E-02 0.25602E-02 0.41685E-02
 0.41509E-02 0.41122E-02 0.38210E-02 0.40332E-02 0.53097E-02 0.74950E-02 0.96842E-02 0.10874E-01 0.10832E-01 0.10350E-01
 0.10602E-01 0.12170E-01 0.14615E-01 0.16857E-01 0.17993E-01 0.17966E-01 0.17623E-01 0.18088E-01 0.19827E-01 0.22166E-01
 0.23767E-01 0.23672E-01 0.22006E-01 0.19766E-01 0.18038E-01 0.17326E-01 0.17383E-01 0.17496E-01 0.16975E-01 0.15604E-01
 0.13779E-01 0.12211E-01 0.11414E-01 0.11363E-01 0.11516E-01 0.11147E-01 0.97889E-02 0.75920E-02 0.53048E-02 0.37842E-02
 0.33605E-02 0.36293E-02 0.38577E-02 0.35848E-02 0.28896E-02 0.22289E-02 0.20897E-02 0.26540E-02 0.35965E-02 0.42149E-02
 0.39576E-02 0.29579E-02 0.19935E-02 0.18219E-02 0.25340E-02 0.35441E-02 0.32476E-02 0.34125E-02 0.36193E-02 0.42053E-02
 0.53986E-02 0.70147E-02 0.84234E-02 0.90314E-02 0.89013E-02 0.87953E-02 0.95011E-02 0.11119E-01 0.13003E-01 0.14318E-01
 0.14651E-01 0.14272E-01 0.13966E-01 0.14534E-01 0.16176E-01 0.18237E-01 0.19636E-01 0.19683E-01 0.18562E-01 0.17092E-01
 0.16081E-01 0.15846E-01 0.16127E-01 0.16313E-01 0.15828E-01 0.14497E-01 0.12668E-01 0.10960E-01 0.98378E-02 0.93436E-02
 0.91174E-02 0.86246E-02 0.74765E-02 0.57209E-02 0.38815E-02 0.26180E-02 0.22423E-02 0.25335E-02 0.29842E-02 0.31737E-02
 0.29619E-02 0.25060E-02 0.21783E-02 0.23270E-02 0.29339E-02 0.35261E-02 0.35808E-02 0.30566E-02 0.24347E-02 0.22170E-02
 0.24772E-02 0.29193E-02 0.24673E-02 0.28328E-02 0.34155E-02 0.42379E-02 0.52761E-02 0.63426E-02 0.70836E-02 0.72727E-02
 0.71532E-02 0.73495E-02 0.83180E-02 0.98914E-02 0.11399E-01 0.12210E-01 0.12175E-01 0.11689E-01 0.11433E-01 0.11972E-01
 0.13370E-01 0.15070E-01 0.16248E-01 0.16404E-01 0.15708E-01 0.14781E-01 0.14196E-01 0.14116E-01 0.14284E-01 0.14235E-01
 0.13587E-01 0.12259E-01 0.10534E-01 0.88818E-02 0.76779E-02 0.70009E-02 0.66206E-02 0.61493E-02 0.52855E-02 0.40410E-02
 0.27750E-02 0.19554E-02 0.18201E-02 0.22346E-02 0.28259E-02 0.32112E-02 0.31642E-02 0.27216E-02 0.22067E-02 0.20401E-02
 0.23809E-02 0.29489E-02 0.32796E-02 0.31639E-02 0.27814E-02 0.24353E-02 0.22735E-02 0.22893E-02 0.18579E-02 0.22910E-02
 0.30453E-02 0.40169E-02 0.50040E-02 0.57416E-02 0.60192E-02 0.58757E-02 0.57018E-02 0.60353E-02 0.71262E-02 0.86735E-02
 0.10028E-01 0.10684E-01 0.10619E-01 0.10247E-01 0.10122E-01 0.10622E-01 0.11735E-01 0.13040E-01 0.13947E-01 0.14108E-01
 0.13649E-01 0.13016E-01 0.12584E-01 0.12403E-01 0.12245E-01 0.11829E-01 0.10992E-01 0.97509E-02 0.83023E-02 0.69478E-02
 0.59467E-02 0.53632E-02 0.50291E-02 0.46612E-02 0.40576E-02 0.32445E-02 0.24725E-02 0.20555E-02 0.21534E-02 0.26552E-02