unknown system                          
   1.00000000000000     
     6.000000    0.000000    0.000000
     0.000000    6.000000    0.000000
     0.000000    0.000000    6.000000
   C    O 
     1     1
Direct
  0.400000  0.500000  0.500000
  0.600000  0.500000  0.500000
 
   56   56   56
 0.24024661575E-03 0.97649450629E-03 0.24016667382E-02 0.38176900901E-02 0.43863411961E-02
 0.38888153032E-02 0.29045971112E-02 0.21053680576E-02 0.16742288014E-02 0.15824199164E-02
 0.19781693001E-02 0.28359803849E-02 0.35191401692E-02 0.33187346123E-02 0.24082046496E-02
 0.17065424310E-02 0.16953077028E-02 0.18945904292E-02 0.17152645362E-02 0.13120730748E-02
 0.12069219517E-02 0.14627045988E-02 0.17331307271E-02 0.19044685854E-02 0.21510711257E-02
 0.24279390135E-02 0.24346659888E-02 0.21517811736E-02 0.19515089429E-02 0.20200373648E-02
 0.20648576627E-02 0.18042861764E-02 0.13981845297E-02 0.11309866946E-02 0.97473120979E-03
 0.79078090590E-03 0.71204148265E-03 0.92827077207E-03 0.12462355360E-02 0.12921052657E-02
 0.11033480113E-02 0.10995361541E-02 0.14281007914E-02 0.17376452600E-02 0.17041028227E-02
 0.14021810692E-02 0.99810850633E-03 0.47376920708E-03 -.57162503132E-04 -.10891040426E-03
 0.65531393328E-03 0.17996682607E-02 0.24221139016E-02 0.20835947202E-02 0.11643480595E-02
 0.37523587720E-03 0.57739810168E-03 0.10568217166E-02 0.20621161850E-02 0.33716343334E-02
 0.43038119486E-02 0.42337720280E-02 0.32587483471E-02 0.21068808936E-02 0.14579990110E-02
 0.15383656809E-02 0.21972079130E-02 0.30203756844E-02 0.34283917661E-02 0.30789554083E-02
 0.22938860618E-02 0.17894449323E-02 0.18534445494E-02 0.20593247586E-02 0.19332593201E-02
 0.15933661111E-02 0.14763444125E-02 0.16931735917E-02 0.20049832574E-02 0.22793530280E-02
 0.25752829917E-02 0.28173644147E-02 0.27840114408E-02 0.24971880870E-02 0.22842745384E-02
 0.23112735184E-02 0.23365303926E-02 0.20982188706E-02 0.16933960263E-02 0.13647957223E-02
 0.11399511648E-02 0.94256417241E-03 0.87401344076E-03 0.10601959833E-02 0.13217288813E-02
 0.13426678883E-02 0.11530534113E-02 0.11141636790E-02 0.13772093789E-02 0.16651260002E-02
 0.16800926901E-02 0.14275460059E-02 0.10151621437E-02 0.46905446114E-03 -.15594451019E-04
 0.38091070143E-04 0.85362187871E-03 0.18985278056E-02 0.23189138102E-02 0.18669786691E-02
 0.10824058818E-02 0.58641997879E-03 0.11530447320E-02 0.11965960217E-02 0.14032323573E-02
 0.23777902861E-02 0.38076845053E-02 0.44726988073E-02 0.36511880792E-02 0.20896224918E-02
 0.12205129321E-02 0.16338735474E-02 0.26481210898E-02 0.32505254698E-02 0.30883368921E-02
 0.25284519240E-02 0.20980807299E-02 0.20501015475E-02 0.22916863996E-02 0.25328009072E-02
 0.25357603305E-02 0.23265895402E-02 0.21606828642E-02 0.22561162394E-02 0.26016502394E-02
 0.30254771006E-02 0.33536969044E-02 0.34666315957E-02 0.33217411232E-02 0.30213319809E-02
 0.27808621200E-02 0.27191183877E-02 0.27164463486E-02 0.25659745803E-02 0.22213799995E-02
 0.18094771234E-02 0.14576188393E-02 0.12277550896E-02 0.11716204186E-02 0.12893164626E-02
 0.14296578186E-02 0.13942812012E-02 0.11910893492E-02 0.10512800042E-02 0.11354779964E-02
 0.13420982351E-02 0.14586443840E-02 0.13648453741E-02 0.10322900021E-02 0.52638202544E-03
 0.14618555666E-03 0.33016399758E-03 0.11333386693E-02 0.19291739027E-02 0.19950824362E-02
 0.13891391015E-02 0.87590587025E-03 0.91340604276E-03 0.13281148760E-02 0.12572554071E-02
 0.10450714020E-02 0.15054871569E-02 0.26838150446E-02 0.35259254664E-02 0.31630860137E-02
 0.21003344612E-02 0.16184957398E-02 0.21821061539E-02 0.29852897834E-02 0.30995789049E-02
 0.25565377375E-02 0.20696772990E-02 0.20818052801E-02 0.24538235904E-02 0.28808034245E-02
 0.32038149050E-02 0.33321907883E-02 0.32090463786E-02 0.29697006670E-02 0.29152761406E-02
 0.31888882202E-02 0.35919042143E-02 0.38124057083E-02 0.37381656792E-02 0.34727128491E-02
 0.31587674457E-02 0.28992082642E-02 0.27687593413E-02 0.27610186025E-02 0.27369108309E-02
 0.25335662506E-02 0.21428986758E-02 0.17263512747E-02 0.14554860845E-02 0.13812252038E-02
 0.14322549710E-02 0.14738804469E-02 0.13819845136E-02 0.11361448864E-02 0.85810259439E-03
 0.71463968516E-03 0.77035283240E-03 0.94601447907E-03 0.10838698846E-02 0.10322398444E-02
 0.76031457845E-03 0.47976845505E-03 0.54297071862E-03 0.10335910731E-02 0.15189246500E-02
 0.14733208135E-02 0.97804431336E-03 0.68835628678E-03 0.95620590837E-03 0.12443146684E-02
 0.13231664714E-02 0.11546053145E-02 0.11084630318E-02 0.14145591095E-02 0.18549146776E-02
 0.21295710007E-02 0.23037527986E-02 0.26301610350E-02 0.30433261991E-02 0.31507138835E-02
 0.27733568378E-02 0.22447048080E-02 0.20494703743E-02 0.23313286729E-02 0.28786104015E-02
 0.34366501485E-02 0.38511022176E-02 0.40069775163E-02 0.38687111224E-02 0.36097346389E-02
 0.35232098844E-02 0.37189782182E-02 0.40025588455E-02 0.41085569713E-02 0.39667686724E-02
 0.36874518260E-02 0.33883105167E-02 0.31354955888E-02 0.29868235985E-02 0.29619835430E-02
 0.29651035233E-02 0.28335252371E-02 0.25033187510E-02 0.20857474338E-02 0.17615063574E-02
 0.16253460730E-02 0.16295969951E-02 0.16347921564E-02 0.15057770219E-02 0.12025400753E-02
 0.81208217016E-03 0.49110822005E-03 0.37110321887E-03 0.49792812421E-03 0.80241555629E-03
 0.10931334467E-02 0.11505172651E-02 0.93416687625E-03 0.67477418149E-03 0.64083031651E-03
 0.80781010110E-03 0.89897684462E-03 0.79569044942E-03 0.72943865037E-03 0.93107915674E-03
 0.16148654736E-02 0.16549512251E-02 0.14380072318E-02 0.10488956252E-02 0.75772560959E-03
 0.90845534816E-03 0.16502597339E-02 0.27157417353E-02 0.35456561730E-02 0.37363312718E-02
 0.33632078998E-02 0.28359582941E-02 0.25037373125E-02 0.24784878450E-02 0.27511547523E-02
 0.32769284691E-02 0.38909182256E-02 0.43033546390E-02 0.43306166711E-02 0.40983893670E-02
 0.39198087744E-02 0.39861105819E-02 0.42404990090E-02 0.45151415901E-02 0.46870847546E-02
 0.47008299395E-02 0.45517119698E-02 0.43069283880E-02 0.40840488250E-02 0.39500111135E-02
 0.38606323221E-02 0.37211061339E-02 0.34734422811E-02 0.31135080292E-02 0.26837900426E-02
 0.22898553107E-02 0.20628586547E-02 0.20306705268E-02 0.20490955751E-02 0.19259668624E-02
 0.16050208353E-02 0.11842076520E-02 0.79363009627E-03 0.53912503764E-03 0.53182193760E-03
 0.82543415379E-03 0.12640770792E-02 0.15067785823E-02 0.13239348738E-02 0.84408459504E-03
 0.42771127957E-03 0.31745297246E-03 0.48170918413E-03 0.76619599403E-03 0.10782392523E-02
 0.13843645465E-02 0.26078007136E-02 0.23175353925E-02 0.16693397141E-02 0.10651895214E-02
 0.82131461611E-03 0.11214413282E-02 0.19634016091E-02 0.30366133189E-02 0.38249094844E-02
 0.40118287582E-02 0.37375069550E-02 0.33704868881E-02 0.31358069331E-02 0.30896900158E-02
 0.33067332170E-02 0.38220171626E-02 0.44013634329E-02 0.46429751535E-02 0.44228902882E-02
 0.40692902546E-02 0.39812401807E-02 0.42159479860E-02 0.45686783711E-02 0.49022199643E-02
 0.52028706180E-02 0.54048829600E-02 0.53963870302E-02 0.52111936770E-02 0.50263967718E-02
 0.49201625652E-02 0.47776865318E-02 0.44877656279E-02 0.40917007746E-02 0.36699427874E-02
 0.32236053061E-02 0.27750758155E-02 0.24642298200E-02 0.23955924423E-02 0.24519870725E-02
 0.23984087777E-02 0.21394749923E-02 0.17607181394E-02 0.13672275773E-02 0.10347726709E-02
 0.89343177098E-03 0.10595997213E-02 0.14193742633E-02 0.16339912383E-02 0.14654093869E-02
 0.10096322689E-02 0.54718746550E-03 0.28455873549E-03 0.33021568834E-03 0.76621566502E-03
 0.15341597823E-02 0.22945815310E-02 0.34586953506E-02 0.29485742435E-02 0.18835892617E-02
 0.11166450879E-02 0.10757287150E-02 0.15824814111E-02 0.22864037367E-02 0.30033056982E-02
 0.36391647119E-02 0.40465404740E-02 0.41116571734E-02 0.39107112693E-02 0.36945861237E-02
 0.37300465510E-02 0.41309507607E-02 0.47452356671E-02 0.51977498476E-02 0.51739352412E-02
 0.47376058167E-02 0.42917267104E-02 0.41681732746E-02 0.43383254558E-02 0.45771492612E-02
 0.47761517951E-02 0.49581371589E-02 0.50844498748E-02 0.50523689238E-02 0.48827412103E-02
 0.47318145453E-02 0.46679660310E-02 0.45771587056E-02 0.43492552432E-02 0.40261844346E-02
 0.36857960511E-02 0.33087772199E-02 0.28832382722E-02 0.25421272467E-02 0.24386490945E-02
 0.25196828759E-02 0.25585330898E-02 0.24013826916E-02 0.20711188380E-02 0.16602749593E-02
 0.12703678821E-02 0.10521900385E-02 0.11237467758E-02 0.13784291703E-02 0.15177511106E-02
 0.13641025588E-02 0.10282060176E-02 0.70107739345E-03 0.45342087180E-03 0.38478594534E-03
 0.77498658380E-03 0.17696973848E-02 0.29357387352E-02 0.33751759877E-02 0.30484537876E-02
 0.20906595410E-02 0.13285822693E-02 0.12453392021E-02 0.16642815735E-02 0.22192546322E-02
 0.28159005292E-02 0.34909563901E-02 0.40759229553E-02 0.43015440235E-02 0.42015802548E-02
 0.41763197445E-02 0.45752378782E-02 0.53251889148E-02 0.60224991848E-02 0.63110113733E-02
 0.61308276671E-02 0.56853678423E-02 0.52487567271E-02 0.49773066055E-02 0.48404058601E-02
 0.47117330028E-02 0.45200032661E-02 0.42903715440E-02 0.40604172940E-02 0.38288696018E-02
 0.36103771291E-02 0.34697133885E-02 0.34456174513E-02 0.34831793824E-02 0.34937137076E-02
 0.34435704449E-02 0.33314954570E-02 0.31285314771E-02 0.28282197095E-02 0.25342381314E-02
 0.23953956633E-02 0.24295904321E-02 0.24816757204E-02 0.23778843363E-02 0.20685034459E-02
 0.16233306745E-02 0.11794864767E-02 0.91290486763E-03 0.94074482534E-03 0.11699214144E-02
 0.13258883269E-02 0.12248785446E-02 0.95556184867E-03 0.71308870491E-03 0.56466042068E-03
 0.53776037681E-03 0.83456522976E-03 0.16571712931E-02 0.27460872151E-02 0.24742657605E-02
 0.25257537382E-02 0.21612718254E-02 0.17586306630E-02 0.16563213073E-02 0.18918617116E-02
 0.23434093133E-02 0.29368606266E-02 0.35912445939E-02 0.41158806014E-02 0.43802916986E-02
 0.45579230604E-02 0.50026296316E-02 0.58271160810E-02 0.67349567490E-02 0.73343757824E-02
 0.75117473929E-02 0.74238594694E-02 0.72315342800E-02 0.69684504802E-02 0.66221645657E-02
 0.62039837845E-02 0.57171196876E-02 0.51486669879E-02 0.45308443191E-02 0.39545880499E-02
 0.34950222337E-02 0.31660582361E-02 0.29641166690E-02 0.29038932715E-02 0.29786775647E-02
 0.31239338101E-02 0.32546818509E-02 0.33160422202E-02 0.32807252654E-02 0.31392679854E-02
 0.29293315405E-02 0.27400722415E-02 0.26356840373E-02 0.25796931639E-02 0.24639929952E-02
 0.22052284220E-02 0.18035115893E-02 0.13479500448E-02 0.99742490719E-03 0.89963553238E-03
 0.10480207352E-02 0.12369649381E-02 0.12418459224E-02 0.10481830711E-02 0.83452856011E-03
 0.74404542326E-03 0.78521885748E-03 0.96973211910E-03 0.13810767738E-02 0.19830091111E-02
 0.15623830082E-02 0.18411334560E-02 0.21023240451E-02 0.23360500691E-02 0.25791841833E-02
 0.28595882979E-02 0.31747646851E-02 0.35021349351E-02 0.38190405517E-02 0.41494747392E-02
 0.46077037592E-02 0.53336966032E-02 0.63173627584E-02 0.73144877604E-02 0.80221617806E-02
 0.83574037099E-02 0.85066241913E-02 0.86815529665E-02 0.88855691010E-02 0.89540820692E-02
 0.87629248025E-02 0.83284477631E-02 0.77355811847E-02 0.70544569443E-02 0.63432444255E-02
 0.56680354386E-02 0.50786140494E-02 0.45893665471E-02 0.42066434807E-02 0.39507663138E-02
 0.38287967061E-02 0.38066539352E-02 0.38317674845E-02 0.38667239913E-02 0.38786939246E-02
 0.38170576775E-02 0.36414253009E-02 0.33758356134E-02 0.31083259745E-02 0.29214795435E-02
 0.28222033981E-02 0.27295486771E-02 0.25265957269E-02 0.21541960744E-02 0.16905072503E-02
 0.13253154767E-02 0.12064489212E-02 0.12966879374E-02 0.14132640222E-02 0.14175680864E-02
 0.13298305338E-02 0.12475690464E-02 0.12107607138E-02 0.11988569908E-02 0.12219251790E-02
 0.13365004790E-02 0.12193734349E-02 0.15482802413E-02 0.21698354088E-02 0.29624004527E-02
 0.37048257518E-02 0.41920850269E-02 0.43388767246E-02 0.42302741779E-02 0.41227887102E-02
 0.43590513237E-02 0.51630237037E-02 0.64295285960E-02 0.77332279528E-02 0.86246296910E-02
 0.89712121249E-02 0.90224343423E-02 0.91539900913E-02 0.95556869833E-02 0.10127973534E-01
 0.10608600464E-01 0.10771470848E-01 0.10553858990E-01 0.10061083003E-01 0.94675393765E-02
 0.88891903769E-02 0.83298265186E-02 0.77385453473E-02 0.70994875265E-02 0.64523010619E-02
 0.58463520899E-02 0.53121831857E-02 0.48804181651E-02 0.45900665950E-02 0.44470121455E-02
 0.43819222338E-02 0.42736924934E-02 0.40300097682E-02 0.36587614375E-02 0.32778515145E-02
 0.30501543720E-02 0.30659912182E-02 0.32448880022E-02 0.33549173413E-02 0.31730732212E-02
 0.26679639919E-02 0.20389357912E-02 0.15720756432E-02 0.14405042799E-02 0.16073285479E-02
 0.18806320532E-02 0.20532940292E-02 0.20229533485E-02 0.18205773223E-02 0.15491053774E-02
 0.13063118770E-02 0.11680448556E-02 0.14077559792E-02 0.17840184405E-02 0.25391721257E-02
 0.35567208296E-02 0.45433127357E-02 0.51653552181E-02 0.52526795593E-02 0.49464735074E-02
 0.46872322127E-02 0.49813582485E-02 0.60371534754E-02 0.75551432691E-02 0.89133966836E-02
 0.96314751930E-02 0.97028256093E-02 0.95252955362E-02 0.95618920608E-02 0.10048110108E-01
 0.10901976755E-01 0.11800706177E-01 0.12365586412E-01 0.12394593622E-01 0.11992557978E-01
 0.11457945114E-01 0.11012103383E-01 0.10642011412E-01 0.10191343608E-01 0.95449491781E-02
 0.86983973247E-02 0.77136500320E-02 0.66907076291E-02 0.57758790847E-02 0.51152742476E-02
 0.47458403145E-02 0.45444445726E-02 0.43111929020E-02 0.39147590817E-02 0.33815898644E-02
 0.28841563150E-02 0.26437234895E-02 0.27826801142E-02 0.32051375621E-02 0.36141860328E-02
 0.36895006668E-02 0.33015292458E-02 0.26002574775E-02 0.19258625405E-02 0.16089060123E-02
 0.17707023713E-02 0.22381875081E-02 0.26538693665E-02 0.27297157025E-02 0.24400196153E-02
 0.19830564684E-02 0.15837059000E-02 0.13684899982E-02 0.18578739771E-02 0.22910267079E-02
 0.30452603741E-02 0.40169355578E-02 0.50039542062E-02 0.57415904838E-02 0.60191785274E-02
 0.58756801912E-02 0.57017819581E-02 0.60352553928E-02 0.71261891834E-02 0.86734682063E-02
 0.10027559861E-01 0.10683572454E-01 0.10618762891E-01 0.10246765658E-01 0.10121912621E-01
 0.10622051305E-01 0.11735366806E-01 0.13039532045E-01 0.13947076961E-01 0.14108336524E-01
 0.13649002873E-01 0.13015763894E-01 0.12584454065E-01 0.12402839093E-01 0.12244596666E-01
 0.11828869532E-01 0.10991694544E-01 0.97509141248E-02 0.83023457857E-02 0.69478474212E-02
 0.59466514085E-02 0.53631510283E-02 0.50290879796E-02 0.46611772412E-02 0.40576380197E-02
 0.32445013688E-02 0.24725484294E-02 0.20555268149E-02 0.21533933500E-02 0.26551953074E-02
 0.32383647859E-02 0.35468922594E-02 0.33775900202E-02 0.27977058129E-02 0.21361596992E-02
 0.18016408809E-02 0.19942662409E-02 0.25372753590E-02 0.30146284696E-02 0.31076659216E-02
 0.28087017062E-02 0.23411339777E-02 0.19430564695E-02 0.17567833167E-02 0.24672687906E-02
 0.28327856470E-02 0.34154913932E-02 0.42378812010E-02 0.52761312863E-02 0.63426458538E-02
 0.70835677427E-02 0.72727497685E-02 0.71532261648E-02 0.73495345731E-02 0.83179997078E-02
 0.98913590598E-02 0.11399062633E-01 0.12209824614E-01 0.12175472821E-01 0.11689413316E-01
 0.11432974224E-01 0.11972231735E-01 0.13369792384E-01 0.15070336994E-01 0.16247741078E-01
 0.16404488994E-01 0.15707904552E-01 0.14781158279E-01 0.14195898264E-01 0.14116115981E-01
 0.14283580099E-01 0.14235369768E-01 0.13586919714E-01 0.12259286349E-01 0.10533962309E-01
 0.88818141306E-02 0.76779093189E-02 0.70008762862E-02 0.66206296742E-02 0.61492663827E-02
 0.52855164115E-02 0.40409669456E-02 0.27750250932E-02 0.19554260708E-02 0.18201083903E-02
 0.22346299118E-02 0.28259325599E-02 0.32112378310E-02 0.31641620721E-02 0.27215952086E-02
 0.22067492070E-02 0.20400552578E-02 0.23809198571E-02 0.29489050679E-02 0.32795799737E-02
 0.31638697533E-02 0.27813723250E-02 0.24353233611E-02 0.22735230124E-02 0.22892727165E-02
 0.32475843321E-02 0.34125463129E-02 0.36193064267E-02 0.42052616705E-02 0.53986075333E-02
 0.70146916558E-02 0.84234092535E-02 0.90313987213E-02 0.89012959931E-02 0.87953005858E-02
 0.95010501330E-02 0.11118601215E-01 0.13002599771E-01 0.14317811817E-01 0.14651212392E-01
 0.14271568867E-01 0.13966159637E-01 0.14534454534E-01 0.16176335462E-01 0.18237245203E-01
 0.19636142311E-01 0.19683161419E-01 0.18562155931E-01 0.17091543306E-01 0.16080830136E-01
 0.15846246027E-01 0.16127229983E-01 0.16313266678E-01 0.15827673818E-01 0.14496774537E-01
 0.12668026420E-01 0.10959999673E-01 0.98378282962E-02 0.93435878526E-02 0.91173845167E-02
 0.86245677169E-02 0.74765377046E-02 0.57208743231E-02 0.38814739061E-02 0.26179972511E-02
 0.22423209505E-02 0.25334950765E-02 0.29841838458E-02 0.31736508959E-02 0.29618886812E-02
 0.25060123116E-02 0.21782931512E-02 0.23270353826E-02 0.29338741731E-02 0.35260694033E-02
 0.35807985201E-02 0.30565833734E-02 0.24346749924E-02 0.22169924738E-02 0.24771583885E-02
 0.29192983758E-02 0.41509178356E-02 0.41121944960E-02 0.38209911617E-02 0.40331855017E-02
 0.53097007827E-02 0.74950150939E-02 0.96841702506E-02 0.10874413431E-01 0.10831970338E-01
 0.10350463263E-01 0.10601850252E-01 0.12170068867E-01 0.14615362905E-01 0.16856852959E-01
 0.17993315122E-01 0.17965728253E-01 0.17622500394E-01 0.18087873623E-01 0.19826617795E-01
 0.22166284994E-01 0.23767088512E-01 0.23672321628E-01 0.22005622742E-01 0.19765886320E-01
 0.18038353626E-01 0.17325594629E-01 0.17382886154E-01 0.17496324765E-01 0.16975435072E-01
 0.15604467182E-01 0.13779157143E-01 0.12210881588E-01 0.11414193975E-01 0.11362772702E-01
 0.11516138805E-01 0.11146686834E-01 0.97889002264E-02 0.75920284961E-02 0.53048238279E-02
 0.37841815830E-02 0.33605231052E-02 0.36293351949E-02 0.38576802605E-02 0.35848462913E-02
 0.28896465130E-02 0.22288866506E-02 0.20897386654E-02 0.26540051227E-02 0.35964676177E-02
 0.42148500168E-02 0.39576182061E-02 0.29579379676E-02 0.19935113163E-02 0.18219162829E-02
 0.25339618340E-02 0.35441407002E-02 0.51267670498E-02 0.49221071478E-02 0.41103106446E-02
 0.38889005422E-02 0.51757299320E-02 0.78748620379E-02 0.10857741944E-01 0.12725458903E-01
 0.12862935093E-01 0.11985846434E-01 0.11666780568E-01 0.13128679055E-01 0.16258425360E-01
 0.19672639151E-01 0.21811135028E-01 0.22173270905E-01 0.21680552254E-01 0.21859304719E-01
 0.23518966489E-01 0.26038031301E-01 0.27854253428E-01 0.27710748717E-01 0.25585811592E-01
 0.22596745954E-01 0.20102084289E-01 0.18808925133E-01 0.18494022296E-01 0.18358925006E-01
 0.17649591829E-01 0.16142879493E-01 0.14257350847E-01 0.12751327125E-01 0.12195264407E-01
 0.12550659580E-01 0.13132620454E-01 0.13004587158E-01 0.11593747063E-01 0.91408701002E-02
 0.66164421250E-02 0.50572493452E-02 0.47827379759E-02 0.51660108111E-02 0.52014179345E-02
 0.43673264605E-02 0.30148312031E-02 0.20072283858E-02 0.20106854177E-02 0.30103852379E-02
 0.43148506191E-02 0.49838594638E-02 0.44552223449E-02 0.30093494388E-02 0.16669244331E-02
 0.14527537630E-02 0.25601872531E-02 0.41684585050E-02 0.62245805209E-02 0.58116558494E-02
 0.44753234193E-02 0.38963795747E-02 0.52930807428E-02 0.85248359840E-02 0.12208047232E-01
 0.14624167683E-01 0.14878542951E-01 0.13647012247E-01 0.12865557353E-01 0.14320140798E-01
 0.18147378289E-01 0.22624305255E-01 0.25568627051E-01 0.26125766804E-01 0.25347228015E-01
 0.25140507714E-01 0.26616313377E-01 0.29225297259E-01 0.31266981742E-01 0.31241194670E-01
 0.28948180665E-01 0.25535807625E-01 0.22566371984E-01 0.20928465494E-01 0.20419945957E-01
 0.20149598234E-01 0.19272695664E-01 0.17521470544E-01 0.15316691883E-01 0.13490670082E-01
 0.12749733079E-01 0.13145416549E-01 0.13933732909E-01 0.14013050398E-01 0.12687920407E-01
 0.10207433735E-01 0.76483209020E-02 0.61611314256E-02 0.60874318558E-02 0.66588401841E-02
 0.66246074228E-02 0.53462728749E-02 0.33763841793E-02 0.19711884998E-02 0.20188982163E-02
 0.33659181935E-02 0.50014554865E-02 0.57679387783E-02 0.50642499426E-02 0.32487128774E-02
 0.15375664719E-02 0.12470858825E-02 0.27288550563E-02 0.49344375571E-02 0.74780705194E-02
 0.68123980803E-02 0.49579085906E-02 0.40997105780E-02 0.56844282375E-02 0.94131406789E-02
 0.13622469706E-01 0.16399492917E-01 0.16746560407E-01 0.15353848844E-01 0.14379265394E-01
 0.15942593262E-01 0.20305253807E-01 0.25484660150E-01 0.28886101357E-01 0.29467075274E-01
 0.28414599754E-01 0.27890659410E-01 0.29178630926E-01 0.31784342632E-01 0.33971768100E-01
 0.34126922062E-01 0.31919095355E-01 0.28459755844E-01 0.25400998533E-01 0.23742384844E-01
 0.23293625909E-01 0.23062655650E-01 0.22062977110E-01 0.19928440831E-01 0.17095620010E-01
 0.14549708793E-01 0.13206225613E-01 0.13242142012E-01 0.13902977450E-01 0.14020182398E-01
 0.12849756209E-01 0.10588259856E-01 0.82363245954E-02 0.69122417103E-02 0.70014357282E-02
 0.77405445603E-02 0.77453450597E-02 0.62370756289E-02 0.38501483782E-02 0.21238273129E-02
 0.21408462556E-02 0.36728818496E-02 0.55040895788E-02 0.63504743921E-02 0.55758293741E-02
 0.35383009163E-02 0.15662317940E-02 0.12448407345E-02 0.31085037859E-02 0.58965263165E-02
 0.87341584861E-02 0.78956374783E-02 0.56161876361E-02 0.44718628029E-02 0.60946406428E-02
 0.10082054774E-01 0.14617062341E-01 0.17731192466E-01 0.18385407876E-01 0.17188677416E-01
 0.16292504926E-01 0.17949106573E-01 0.22543041531E-01 0.28044297775E-01 0.31702485181E-01
 0.32392978607E-01 0.31338637854E-01 0.30753407179E-01 0.31937418486E-01 0.34431298643E-01
 0.36570923538E-01 0.36779105674E-01 0.34680302512E-01 0.31314108424E-01 0.28302896501E-01
 0.26650107254E-01 0.26152105771E-01 0.25770050046E-01 0.24465155710E-01 0.21857415226E-01
 0.18443733010E-01 0.15328251173E-01 0.13516212853E-01 0.13175282083E-01 0.13507509201E-01
 0.13398349482E-01 0.12241692745E-01 0.10270096040E-01 0.83181786943E-02 0.72921962795E-02
 0.75252976751E-02 0.83332058171E-02 0.83604225767E-02 0.67763624884E-02 0.42290914996E-02
 0.23778387906E-02 0.23749523513E-02 0.39188443963E-02 0.57091695054E-02 0.64959245105E-02
 0.57064077225E-02 0.36660065830E-02 0.16690785588E-02 0.14223549585E-02 0.36161345658E-02
 0.68847970124E-02 0.97255804833E-02 0.88613111019E-02 0.63517751116E-02 0.49445272156E-02
 0.63977969127E-02 0.10343680654E-01 0.15017230112E-01 0.18525997366E-01 0.19780051788E-01
 0.19157030143E-01 0.18577699943E-01 0.20267466105E-01 0.24777755077E-01 0.30278807020E-01
 0.34140639309E-01 0.35246826279E-01 0.34697376759E-01 0.34487208597E-01 0.35754572517E-01
 0.38087539814E-01 0.40034587108E-01 0.40184987714E-01 0.38143466703E-01 0.34795282060E-01
 0.31597940791E-01 0.29452042054E-01 0.28164585594E-01 0.26884918937E-01 0.24923092789E-01
 0.22236501277E-01 0.19424387039E-01 0.17356402985E-01 0.16548229276E-01 0.16647080319E-01
 0.16595543835E-01 0.15481507616E-01 0.13258105301E-01 0.10660075145E-01 0.86005878495E-02
 0.76878006696E-02 0.79519569534E-02 0.86590851076E-02 0.85787068868E-02 0.69766398690E-02
 0.44993209826E-02 0.27448673439E-02 0.27665745133E-02 0.41675184852E-02 0.56711016193E-02
 0.62140392011E-02 0.54077473085E-02 0.35589166880E-02 0.17913652449E-02 0.17275454087E-02
 0.41307443652E-02 0.76729169982E-02 0.10318544754E-01 0.95056942720E-02 0.69782058880E-02
 0.54644698664E-02 0.67339650516E-02 0.10489865567E-01 0.15140718945E-01 0.18987504506E-01
 0.20953937892E-01 0.21154462290E-01 0.21125139030E-01 0.22869034812E-01 0.27050359138E-01
 0.32234383427E-01 0.36226545436E-01 0.38078741384E-01 0.38629100723E-01 0.39356006331E-01
 0.41055641267E-01 0.43427346337E-01 0.45410097135E-01 0.45826478313E-01 0.44122496690E-01
 0.40775459028E-01 0.36873489193E-01 0.33191016013E-01 0.29796428879E-01 0.26592529885E-01
 0.24000670340E-01 0.22925091072E-01 0.24085607987E-01 0.27341457345E-01 0.31394052525E-01
 0.34082388984E-01 0.33429042398E-01 0.28973386693E-01 0.22226531425E-01 0.15648191465E-01
 0.11069142240E-01 0.89459845569E-02 0.86443065456E-02 0.89720942747E-02 0.86640631133E-02
 0.70931902314E-02 0.48590490619E-02 0.33460229297E-02 0.33904290717E-02 0.45181642813E-02
 0.55728638011E-02 0.57567226973E-02 0.49093761270E-02 0.33350248952E-02 0.19341265277E-02
 0.21126764748E-02 0.46082570419E-02 0.81988002911E-02 0.10614680445E-01 0.98705306065E-02
 0.74835220169E-02 0.60410931084E-02 0.72079149488E-02 0.10729275278E-01 0.15232382409E-01
 0.19295319605E-01 0.21949873719E-01 0.23086116712E-01 0.23761804917E-01 0.25573855133E-01
 0.29210184415E-01 0.33772676212E-01 0.37775820517E-01 0.40598559512E-01 0.42738470970E-01
 0.44969392027E-01 0.47666930422E-01 0.50741026302E-01 0.53650827090E-01 0.55393884849E-01
 0.54925299998E-01 0.51854431273E-01 0.46612436509E-01 0.39987740237E-01 0.32931482262E-01
 0.27056403873E-01 0.24924322466E-01 0.29121378059E-01 0.40454261411E-01 0.56597241887E-01
 0.72267619222E-01 0.81188245838E-01 0.79176057907E-01 0.66633725518E-01 0.48446847692E-01
 0.31005753765E-01 0.18629874149E-01 0.12111599830E-01 0.97697482180E-02 0.92515924577E-02
 0.86896858051E-02 0.72681088045E-02 0.54098754002E-02 0.42076091356E-02 0.42486498117E-02
 0.50207150539E-02 0.55541331337E-02 0.53418302669E-02 0.44382128915E-02 0.31424372964E-02
 0.21355124950E-02 0.25664212815E-02 0.50784622065E-02 0.85579295293E-02 0.10808723866E-01
 0.10188458729E-01 0.80448043226E-02 0.67166439347E-02 0.77226942121E-02 0.10906218369E-01
 0.15185880886E-01 0.19443360357E-01 0.22808729607E-01 0.24915683941E-01 0.26279765481E-01
 0.28029315351E-01 0.30894840143E-01 0.34628459784E-01 0.38565064511E-01 0.42438863634E-01
 0.46399102446E-01 0.50568169404E-01 0.55018575481E-01 0.59959785283E-01 0.65335695036E-01
 0.70094813184E-01 0.72268452468E-01 0.70078275986E-01 0.63011400631E-01 0.52141380234E-01
 0.40167676392E-01 0.31585478287E-01 0.32199820545E-01 0.46963167096E-01 0.76605178190E-01
 0.11517734578E+00 0.15078986640E+00 0.17022472051E+00 0.16550381454E+00 0.13839174592E+00
 0.99376677837E-01 0.61528101384E-01 0.33741369001E-01 0.18004379036E-01 0.11316077836E-01
 0.92661181852E-02 0.84664587768E-02 0.73548736093E-02 0.59962372741E-02 0.51787574053E-02
 0.52420350446E-02 0.56415928254E-02 0.56262186729E-02 0.50063570788E-02 0.40478951755E-02
 0.30356186549E-02 0.24303444347E-02 0.31060236349E-02 0.55794586700E-02 0.88591502844E-02
 0.11009621217E-01 0.10584898427E-01 0.87369655569E-02 0.74743277415E-02 0.81916727513E-02
 0.10929541523E-01 0.14959051226E-01 0.19438973532E-01 0.23532278852E-01 0.26563942579E-01
 0.28486024922E-01 0.29989081416E-01 0.31928243351E-01 0.34760223218E-01 0.38588157138E-01
 0.43416884198E-01 0.49114743250E-01 0.55417625206E-01 0.62357259155E-01 0.70474309789E-01
 0.79982480953E-01 0.89456794408E-01 0.95661022291E-01 0.95109534118E-01 0.86195427057E-01
 0.70515240661E-01 0.53206368119E-01 0.42590643062E-01 0.48582303178E-01 0.78939771050E-01
 0.13397903989E+00 0.20279891403E+00 0.26481332043E+00 0.29780778226E+00 0.28892541479E+00
 0.24165106245E+00 0.17364685175E+00 0.10676773070E+00 0.56358909650E-01 0.26637816763E-01
 0.13251054093E-01 0.89335734649E-02 0.78581056862E-02 0.71681075146E-02 0.64199381420E-02
 0.60900115872E-02 0.62460131386E-02 0.62975987360E-02 0.57430221046E-02 0.47365656700E-02
 0.37432809969E-02 0.30190489843E-02 0.28115902539E-02 0.37188466263E-02 0.61169348276E-02
 0.91562450494E-02 0.11207604583E-01 0.10962464182E-01 0.93915174888E-02 0.81938062881E-02
 0.86625390654E-02 0.11016709952E-01 0.14810458615E-01 0.19424912445E-01 0.24077984129E-01
 0.27860933030E-01 0.30224171274E-01 0.31446331325E-01 0.32500434813E-01 0.34481458619E-01
 0.38131672641E-01 0.43647283828E-01 0.50735256244E-01 0.59038342480E-01 0.68777151838E-01
 0.80781484042E-01 0.95273784489E-01 0.11021535649E+00 0.12104232628E+00 0.12263543871E+00
 0.11237328678E+00 0.92422855630E-01 0.70444578640E-01 0.58759811547E-01 0.71562462666E-01
 0.11938441723E+00 0.20177953036E+00 0.30238405554E+00 0.39157247474E+00 0.43811736108E+00
 0.42440295164E+00 0.35562091229E+00 0.25651945666E+00 0.15792438076E+00 0.82230103518E-01
 0.36547674272E-01 0.15416517603E-01 0.84661517888E-02 0.70372949292E-02 0.67659055858E-02
 0.66603425226E-02 0.68663310981E-02 0.71498344354E-02 0.68912510228E-02 0.58762159292E-02
 0.45780123491E-02 0.35846275857E-02 0.30978393532E-02 0.32126886441E-02 0.43162741880E-02
 0.66448296269E-02 0.94543426305E-02 0.11349563185E-01 0.11189274685E-01 0.98059285755E-02
 0.87086838805E-02 0.91054660031E-02 0.11274208278E-01 0.14892046768E-01 0.19489691469E-01
 0.24406181458E-01 0.28658622175E-01 0.31352905103E-01 0.32415329710E-01 0.32848350746E-01
 0.34185900336E-01 0.37622792992E-01 0.43498262029E-01 0.51465997682E-01 0.61228162780E-01
 0.73244994983E-01 0.88537246393E-01 0.10720210609E+00 0.12662049668E+00 0.14121805878E+00
 0.14471822186E+00 0.13379059965E+00 0.11101536370E+00 0.85926267961E-01 0.73911549644E-01
 0.92495881875E-01 0.15429571019E+00 0.25807021208E+00 0.38304549751E+00 0.49269155975E+00
 0.54917167186E+00 0.53149194526E+00 0.44609209427E+00 0.32284435130E+00 0.19927476533E+00
 0.10335104120E+00 0.44729539421E-01 0.17264030961E-01 0.81293199870E-02 0.63624055972E-02
 0.63915505559E-02 0.67959416302E-02 0.74333665828E-02 0.78108216307E-02 0.73157563364E-02
 0.59959047030E-02 0.45456052091E-02 0.35768364754E-02 0.32258694365E-02 0.35240987617E-02
 0.47575660052E-02 0.70537763855E-02 0.97007412694E-02 0.11400113946E-01 0.11255376329E-01
 0.99363616704E-02 0.88945267836E-02 0.93009643360E-02 0.11431076865E-01 0.14982459365E-01
 0.19539856060E-01 0.24513164492E-01 0.28920954409E-01 0.31747164954E-01 0.32770027222E-01
 0.32983011114E-01 0.34074880693E-01 0.37409966682E-01 0.43386961839E-01 0.51653570203E-01
 0.61955263750E-01 0.74857104882E-01 0.91445694024E-01 0.11174731314E+00 0.13290445661E+00
 0.14896521139E+00 0.15323801081E+00 0.14213927990E+00 0.11839550822E+00 0.92227218859E-01
 0.80175642260E-01 0.10103375731E+00 0.16819830639E+00 0.28008470880E+00 0.41421014658E+00
 0.53145456499E+00 0.59156652726E+00 0.57234544612E+00 0.48068682538E+00 0.34831813122E+00
 0.21524154719E+00 0.11155306885E+00 0.47932800170E-01 0.18008909972E-01 0.80182250552E-02
 0.61079247774E-02 0.62453562442E-02 0.68462646107E-02 0.76498141360E-02 0.80586528020E-02
 0.74716228087E-02 0.60465834061E-02 0.45554866064E-02 0.36016476777E-02 0.32903300068E-02
 0.36421294195E-02 0.49203345595E-02 0.72108212520E-02 0.97999578849E-02 0.11349563185E-01
 0.11189274685E-01 0.98059285755E-02 0.87086838805E-02 0.91054660031E-02 0.11274208278E-01