Loading python/3.10.5
  Loading requirement: tcl/8.6.10
Loading python/3.10.5
  Loading requirement: tcl/8.6.10
 running on   24 total cores
 distrk:  each k-point on   24 cores,    1 groups
 distr:  one band on    1 cores,   24 groups
 using from now: INCAR     
 vasp.5.4.1 05Feb16 (build Apr 25 2018 11:37:45) complex                        
  
 POSCAR found type information on POSCAR  C  O 
 POSCAR found :  2 types and       2 ions

 ----------------------------------------------------------------------------- 
|                                                                             |
|           W    W    AA    RRRRR   N    N  II  N    N   GGGG   !!!           |
|           W    W   A  A   R    R  NN   N  II  NN   N  G    G  !!!           |
|           W    W  A    A  R    R  N N  N  II  N N  N  G       !!!           |
|           W WW W  AAAAAA  RRRRR   N  N N  II  N  N N  G  GGG   !            |
|           WW  WW  A    A  R   R   N   NN  II  N   NN  G    G                |
|           W    W  A    A  R    R  N    N  II  N    N   GGGG   !!!           |
|                                                                             |
|      For optimal performance we recommend to set                            |
|        NCORE= 4 - approx SQRT( number of cores)                             |
|      NCORE specifies how many cores store one orbital (NPAR=cpu/NCORE).     |
|      This setting can  greatly improve the performance of VASP for DFT.     |
|      The default, NPAR=number of cores might be grossly inefficient         |
|      on modern multi-core architectures or massively parallel machines.     |
|      Do your own testing !!!!                                               |
|      Unfortunately you need to use the default for GW and RPA calculations. |
|      (for HF NCORE is supported but not extensively tested yet)             |
|                                                                             |
 ----------------------------------------------------------------------------- 

 LDA part: xc-table for Pade appr. of Perdew
 POSCAR found type information on POSCAR  C  O 
 POSCAR found :  2 types and       2 ions
 POSCAR, INCAR and KPOINTS ok, starting setup
 WARNING: small aliasing (wrap around) errors must be expected
 FFT: planning ...
 WAVECAR not read
 entering main loop
       N       E                     dE             d eps       ncg     rms          rms(c)
DAV:   1     0.366187391484E+02    0.36619E+02   -0.34701E+03    48   0.213E+02
DAV:   2    -0.148323122661E+02   -0.51451E+02   -0.51451E+02    72   0.623E+01
DAV:   3    -0.152770578806E+02   -0.44475E+00   -0.44475E+00    48   0.898E+00
DAV:   4    -0.152785728903E+02   -0.15150E-02   -0.15150E-02    96   0.535E-01
DAV:   5    -0.152785729049E+02   -0.14567E-07   -0.14296E-07    48   0.173E-03    0.616E+00
DAV:   6    -0.148247022737E+02    0.45387E+00   -0.37606E+00    72   0.465E+00    0.354E+00
DAV:   7    -0.147161606863E+02    0.10854E+00   -0.72231E-01    72   0.192E+00    0.196E+00
DAV:   8    -0.146779750811E+02    0.38186E-01   -0.13224E-01    72   0.102E+00    0.364E-01
DAV:   9    -0.146778636789E+02    0.11140E-03   -0.27478E-03    48   0.167E-01    0.803E-02
DAV:  10    -0.146786211006E+02   -0.75742E-03   -0.38052E-04    72   0.639E-02    0.323E-02
DAV:  11    -0.146796188743E+02   -0.99777E-03   -0.26933E-04    72   0.361E-02    0.130E-02
DAV:  12    -0.146797050924E+02   -0.86218E-04   -0.17325E-05    72   0.113E-02
   1 F= -.14679705E+02 E0= -.14683570E+02  d E =0.115958E-01
 writing wavefunctions
Loading python/3.10.5
  Loading requirement: tcl/8.6.10
