   2   2   0   0
  0.1080000E+03  0.6000000E-09  0.6000000E-09  0.6000000E-09  0.5000000E-15
  1.000000000000000E-004
  CAR 
 unknown system                          
     10.38526981    -29.81529939  301     -8.35489876      1.00000000
    -29.815  0.0000E+00  0.0000E+00
    -29.681  0.0000E+00  0.0000E+00
    -29.547 -0.9813E-31 -0.1315E-31
    -29.413 -0.6334E-26 -0.8487E-27
    -29.279 -0.1654E-21 -0.2216E-22
    -29.145 -0.1745E-17 -0.2338E-18
    -29.011 -0.7424E-14 -0.9951E-15
    -28.877 -0.1226E-10 -0.1644E-11
    -28.743 -0.8320E-08 -0.1117E-08
    -28.609 -0.2235E-05 -0.3006E-06
    -28.475 -0.2341E-03 -0.3167E-04
    -28.341 -0.9250E-02 -0.1271E-02
    -28.207 -0.1261E+00 -0.1816E-01
    -28.073 -0.3848E+00 -0.6972E-01
    -27.939  0.1584E+01  0.1425E+00
    -27.805  0.7031E+01  0.1085E+01
    -27.671  0.6333E+01  0.1933E+01
    -27.537  0.9763E+00  0.2064E+01
    -27.403 -0.3817E+00  0.2013E+01
    -27.269 -0.9195E-01  0.2001E+01
    -27.135 -0.5690E-02  0.2000E+01
    -27.001 -0.1240E-03  0.2000E+01
    -26.867 -0.1027E-05  0.2000E+01
    -26.733 -0.3325E-08  0.2000E+01
    -26.599 -0.4268E-11  0.2000E+01
    -26.465 -0.3314E-14  0.2000E+01
    -26.331  0.0000E+00  0.2000E+01
    -26.197  0.0000E+00  0.2000E+01
    -26.063  0.0000E+00  0.2000E+01
    -25.929  0.0000E+00  0.2000E+01
    -25.795  0.0000E+00  0.2000E+01
    -25.661  0.0000E+00  0.2000E+01
    -25.527  0.0000E+00  0.2000E+01
    -25.393  0.0000E+00  0.2000E+01
    -25.259  0.0000E+00  0.2000E+01
    -25.125  0.0000E+00  0.2000E+01
    -24.991  0.0000E+00  0.2000E+01
    -24.857  0.0000E+00  0.2000E+01
    -24.723  0.0000E+00  0.2000E+01
    -24.589  0.0000E+00  0.2000E+01
    -24.455  0.0000E+00  0.2000E+01
    -24.321  0.0000E+00  0.2000E+01
    -24.187  0.0000E+00  0.2000E+01
    -24.053  0.0000E+00  0.2000E+01
    -23.919  0.0000E+00  0.2000E+01
    -23.785  0.0000E+00  0.2000E+01
    -23.651  0.0000E+00  0.2000E+01
    -23.517  0.0000E+00  0.2000E+01
    -23.383  0.0000E+00  0.2000E+01
    -23.249  0.0000E+00  0.2000E+01
    -23.115  0.0000E+00  0.2000E+01
    -22.981  0.0000E+00  0.2000E+01
    -22.847  0.0000E+00  0.2000E+01
    -22.713  0.0000E+00  0.2000E+01
    -22.579  0.0000E+00  0.2000E+01
    -22.445  0.0000E+00  0.2000E+01
    -22.311  0.0000E+00  0.2000E+01
    -22.177  0.0000E+00  0.2000E+01
    -22.043  0.0000E+00  0.2000E+01
    -21.909  0.0000E+00  0.2000E+01
    -21.775  0.0000E+00  0.2000E+01
    -21.641  0.0000E+00  0.2000E+01
    -21.507  0.0000E+00  0.2000E+01
    -21.373  0.0000E+00  0.2000E+01
    -21.239  0.0000E+00  0.2000E+01
    -21.105  0.0000E+00  0.2000E+01
    -20.971  0.0000E+00  0.2000E+01
    -20.837  0.0000E+00  0.2000E+01
    -20.703  0.0000E+00  0.2000E+01
    -20.569  0.0000E+00  0.2000E+01
    -20.435  0.0000E+00  0.2000E+01
    -20.301  0.0000E+00  0.2000E+01
    -20.167  0.0000E+00  0.2000E+01
    -20.033  0.0000E+00  0.2000E+01
    -19.899  0.0000E+00  0.2000E+01
    -19.765  0.0000E+00  0.2000E+01
    -19.631  0.0000E+00  0.2000E+01
    -19.497  0.0000E+00  0.2000E+01
    -19.363  0.0000E+00  0.2000E+01
    -19.229  0.0000E+00  0.2000E+01
    -19.095  0.0000E+00  0.2000E+01
    -18.961  0.0000E+00  0.2000E+01
    -18.827  0.0000E+00  0.2000E+01
    -18.693  0.0000E+00  0.2000E+01
    -18.559  0.0000E+00  0.2000E+01
    -18.425  0.0000E+00  0.2000E+01
    -18.291  0.0000E+00  0.2000E+01
    -18.157  0.0000E+00  0.2000E+01
    -18.023  0.0000E+00  0.2000E+01
    -17.889  0.0000E+00  0.2000E+01
    -17.755  0.0000E+00  0.2000E+01
    -17.621  0.0000E+00  0.2000E+01
    -17.487  0.0000E+00  0.2000E+01
    -17.353  0.0000E+00  0.2000E+01
    -17.219  0.0000E+00  0.2000E+01
    -17.085  0.0000E+00  0.2000E+01
    -16.951  0.0000E+00  0.2000E+01
    -16.817  0.0000E+00  0.2000E+01
    -16.683  0.0000E+00  0.2000E+01
    -16.549  0.0000E+00  0.2000E+01
    -16.415  0.0000E+00  0.2000E+01
    -16.281  0.0000E+00  0.2000E+01
    -16.147  0.0000E+00  0.2000E+01
    -16.013  0.0000E+00  0.2000E+01
    -15.879  0.0000E+00  0.2000E+01
    -15.745  0.0000E+00  0.2000E+01
    -15.611  0.0000E+00  0.2000E+01
    -15.477  0.0000E+00  0.2000E+01
    -15.343  0.0000E+00  0.2000E+01
    -15.209  0.0000E+00  0.2000E+01
    -15.075 -0.1814E-27  0.2000E+01
    -14.941 -0.6386E-23  0.2000E+01
    -14.807 -0.9087E-19  0.2000E+01
    -14.673 -0.5218E-15  0.2000E+01
    -14.539 -0.1167E-11  0.2000E+01
    -14.405 -0.1073E-08  0.2000E+01
    -14.271 -0.3917E-06  0.2000E+01
    -14.137 -0.5611E-04  0.2000E+01
    -14.003 -0.3075E-02  0.2000E+01
    -13.869 -0.6059E-01  0.1991E+01
    -13.735 -0.3417E+00  0.1946E+01
    -13.601  0.4089E+00  0.2000E+01
    -13.467  0.5336E+01  0.2715E+01
    -13.333  0.7640E+01  0.3739E+01
    -13.199  0.2467E+01  0.4070E+01
    -13.065 -0.3280E+00  0.4026E+01
    -12.931 -0.1770E+00  0.4002E+01
    -12.797 -0.1609E-01  0.4000E+01
    -12.663 -0.4886E-03  0.4000E+01
    -12.529 -0.5542E-05  0.4000E+01
    -12.395 -0.2441E-07  0.4000E+01
    -12.261 -0.4248E-10  0.4000E+01
    -12.127 -0.2983E-13  0.4000E+01
    -11.993 -0.5905E-19  0.4000E+01
    -11.859 -0.3790E-15  0.4000E+01
    -11.725 -0.9500E-12  0.4000E+01
    -11.591 -0.9762E-09  0.4000E+01
    -11.457 -0.3994E-06  0.4000E+01
    -11.323 -0.6423E-04  0.4000E+01
    -11.189 -0.3969E-02  0.3999E+01
    -11.055 -0.8921E-01  0.3988E+01
    -10.921 -0.6049E+00  0.3906E+01
    -10.787  0.2449E+00  0.3939E+01
    -10.653  0.9208E+01  0.5173E+01
    -10.519  0.1576E+02  0.7285E+01
    -10.385  0.6292E+01  0.8128E+01
    -10.251 -0.4723E+00  0.8065E+01
    -10.117 -0.4341E+00  0.8006E+01
     -9.983 -0.4599E-01  0.8000E+01
     -9.849 -0.1584E-02  0.8000E+01
     -9.715 -0.2021E-04  0.8000E+01
     -9.581 -0.9987E-07  0.8000E+01
     -9.447 -0.1027E-07  0.8000E+01
     -9.313 -0.2628E-05  0.8000E+01
     -9.179 -0.2671E-03  0.8000E+01
     -9.045 -0.1022E-01  0.7999E+01
     -8.911 -0.1343E+00  0.7981E+01
     -8.777 -0.3803E+00  0.7930E+01
     -8.643  0.1728E+01  0.8161E+01
     -8.509  0.7159E+01  0.9120E+01
     -8.375  0.6168E+01  0.9947E+01
     -8.241  0.8634E+00  0.1006E+02
     -8.107 -0.3770E+00  0.1001E+02
     -7.973 -0.8569E-01  0.1000E+02
     -7.839 -0.5118E-02  0.1000E+02
     -7.705 -0.1081E-03  0.1000E+02
     -7.571 -0.8685E-06  0.1000E+02
     -7.437 -0.2731E-08  0.1000E+02
     -7.303 -0.3404E-11  0.1000E+02
     -7.169 -0.3314E-14  0.1000E+02
     -7.035  0.0000E+00  0.1000E+02
     -6.901  0.0000E+00  0.1000E+02
     -6.767  0.0000E+00  0.1000E+02
     -6.633  0.0000E+00  0.1000E+02
     -6.499  0.0000E+00  0.1000E+02
     -6.365  0.0000E+00  0.1000E+02
     -6.231  0.0000E+00  0.1000E+02
     -6.097  0.0000E+00  0.1000E+02
     -5.963  0.0000E+00  0.1000E+02
     -5.829  0.0000E+00  0.1000E+02
     -5.695  0.0000E+00  0.1000E+02
     -5.561  0.0000E+00  0.1000E+02
     -5.427  0.0000E+00  0.1000E+02
     -5.293  0.0000E+00  0.1000E+02
     -5.159  0.0000E+00  0.1000E+02
     -5.025  0.0000E+00  0.1000E+02
     -4.891  0.0000E+00  0.1000E+02
     -4.757  0.0000E+00  0.1000E+02
     -4.623  0.0000E+00  0.1000E+02
     -4.489  0.0000E+00  0.1000E+02
     -4.355  0.0000E+00  0.1000E+02
     -4.221  0.0000E+00  0.1000E+02
     -4.087  0.0000E+00  0.1000E+02
     -3.953  0.0000E+00  0.1000E+02
     -3.819  0.0000E+00  0.1000E+02
     -3.685  0.0000E+00  0.1000E+02
     -3.551 -0.3267E-27  0.1000E+02
     -3.417 -0.1160E-22  0.1000E+02
     -3.283 -0.1665E-18  0.1000E+02
     -3.149 -0.9644E-15  0.1000E+02
     -3.015 -0.2176E-11  0.1000E+02
     -2.881 -0.2018E-08  0.1000E+02
     -2.747 -0.7434E-06  0.1000E+02
     -2.613 -0.1075E-03  0.1000E+02
     -2.479 -0.5946E-02  0.9999E+01
     -2.345 -0.1184E+00  0.9983E+01
     -2.211 -0.6778E+00  0.9893E+01
     -2.077  0.7671E+00  0.9995E+01
     -1.943  0.1056E+02  0.1141E+02
     -1.809  0.1533E+02  0.1346E+02
     -1.675  0.5037E+01  0.1414E+02
     -1.541 -0.6451E+00  0.1405E+02
     -1.407 -0.3600E+00  0.1400E+02
     -1.273 -0.3311E-01  0.1400E+02
     -1.139 -0.1015E-02  0.1400E+02
     -1.005 -0.1314E-04  0.1400E+02
     -0.871 -0.1710E-03  0.1400E+02
     -0.737 -0.7280E-02  0.1400E+02
     -0.603 -0.1081E+00  0.1398E+02
     -0.469 -0.3877E+00  0.1393E+02
     -0.335  0.1266E+01  0.1410E+02
     -0.201  0.6702E+01  0.1500E+02
     -0.067  0.6700E+01  0.1590E+02
      0.067  0.1264E+01  0.1607E+02
      0.201 -0.3877E+00  0.1602E+02
      0.335 -0.1080E+00  0.1600E+02
      0.469 -0.7272E-02  0.1600E+02
      0.603 -0.1707E-03  0.1600E+02
      0.737 -0.1518E-05  0.1600E+02
      0.871 -0.5268E-08  0.1600E+02
      1.005 -0.7248E-11  0.1600E+02
      1.139 -0.3314E-14  0.1600E+02
      1.273 -0.2041E-28  0.1600E+02
      1.407 -0.8625E-24  0.1600E+02
      1.541 -0.1475E-19  0.1600E+02
      1.675 -0.1021E-15  0.1600E+02
      1.809 -0.2772E-12  0.1600E+02
      1.943 -0.3096E-09  0.1600E+02
      2.077 -0.1389E-06  0.1600E+02
      2.211 -0.2480E-04  0.1600E+02
      2.345 -0.1736E-02  0.1600E+02
      2.479 -0.4585E-01  0.1599E+02
      2.613 -0.4024E+00  0.1594E+02
      2.747 -0.4022E+00  0.1589E+02
      2.881  0.5735E+01  0.1665E+02
      3.015  0.1498E+02  0.1866E+02
      3.149  0.9837E+01  0.1998E+02
      3.283  0.1875E+00  0.2001E+02
      3.417 -0.1020E+01  0.1987E+02
      3.551  0.8905E+01  0.2106E+02
      3.685  0.2180E+02  0.2398E+02
      3.819  0.1448E+02  0.2592E+02
      3.953  0.1639E+01  0.2614E+02
      4.087 -0.8548E+00  0.2603E+02
      4.221 -0.2035E+00  0.2600E+02
      4.355 -0.1394E-01  0.2600E+02
      4.489 -0.1495E-02  0.2600E+02
      4.623 -0.3004E-01  0.2600E+02
      4.757 -0.2503E+00  0.2596E+02
      4.891 -0.1266E+00  0.2595E+02
      5.025  0.3706E+01  0.2644E+02
      5.159  0.7955E+01  0.2751E+02
      5.293  0.4026E+01  0.2805E+02
      5.427 -0.4916E-01  0.2804E+02
      5.561 -0.2695E+00  0.2800E+02
      5.695 -0.4760E-01  0.2800E+02
      5.829 -0.1564E+00  0.2798E+02
      5.963 -0.3608E+00  0.2793E+02
      6.097  0.2090E+01  0.2821E+02
      6.231  0.7427E+01  0.2920E+02
      6.365  0.5757E+01  0.2998E+02
      6.499  0.6177E+00  0.3006E+02
      6.633 -0.3757E+00  0.3001E+02
      6.767 -0.3144E+00  0.2997E+02
      6.901 -0.1199E+01  0.2981E+02
      7.035  0.1452E+01  0.3000E+02
      7.169  0.1826E+02  0.3245E+02
      7.303  0.3223E+02  0.3677E+02
      7.437  0.2375E+02  0.3995E+02
      7.571  0.1721E+02  0.4225E+02
      7.705  0.1210E+02  0.4388E+02
      7.839  0.1917E+01  0.4413E+02
      7.973 -0.1145E+01  0.4398E+02
      8.107 -0.7294E+00  0.4388E+02
      8.241  0.4601E+01  0.4450E+02
      8.375  0.1428E+02  0.4641E+02
      8.509  0.1113E+02  0.4790E+02
      8.643  0.1553E+01  0.4811E+02
      8.777 -0.6579E+00  0.4802E+02
      8.911 -0.1618E+00  0.4800E+02
      9.045 -0.1071E-01  0.4800E+02
      9.179 -0.2558E-03  0.4800E+02
      9.313 -0.2360E-05  0.4800E+02
      9.447 -0.8602E-08  0.4800E+02
      9.581 -0.1252E-10  0.4800E+02
      9.715 -0.6628E-14  0.4800E+02
      9.849  0.0000E+00  0.4800E+02
      9.983  0.0000E+00  0.4800E+02
     10.117  0.0000E+00  0.4800E+02
     10.251  0.0000E+00  0.4800E+02
     10.385  0.0000E+00  0.4800E+02
