       N       E                     dE             d eps       ncg     rms          rms(c)
DAV:   1    -0.146797868110E+02   -0.14680E+02   -0.18197E-05    48   0.868E-03    0.763E-04
DAV:   2    -0.146797868139E+02   -0.28649E-08   -0.11985E-07    48   0.811E-04
   1 F= -.14679787E+02 E0= -.14683652E+02  d E =0.115958E-01
