<?xml version="1.0" encoding="ISO-8859-1"?>
<modeling>
 <generator>
  <i name="program" type="string">vasp </i>
  <i name="version" type="string">5.4.1  </i>
  <i name="subversion" type="string">05Feb16 (build Apr 25 2018 11:37:45) complex                          parallel </i>
  <i name="platform" type="string">LinuxIFC </i>
  <i name="date" type="string">2023 01 29 </i>
  <i name="time" type="string">13:38:51 </i>
 </generator>
 <incar>
  <i type="string" name="PREC">normal</i>
  <i name="ENCUT">    350.00000000</i>
  <v type="int" name="KPOINT_BSE">    -1     0     0     0</v>
  <i type="string" name="GGA"> PE</i>
 </incar>
 <kpoints>
  <generation param="Monkhorst-Pack">
   <v type="int" name="divisions">       1        1        1 </v>
   <v name="usershift">      0.00000000       0.00000000       0.00000000 </v>
   <v name="genvec1">      1.00000000       0.00000000       0.00000000 </v>
   <v name="genvec2">      0.00000000       1.00000000       0.00000000 </v>
   <v name="genvec3">      0.00000000       0.00000000       1.00000000 </v>
   <v name="shift">      0.00000000       0.00000000       0.00000000 </v>
  </generation>
  <varray name="kpointlist" >
   <v>       0.00000000       0.00000000       0.00000000 </v>
  </varray>
  <varray name="weights" >
   <v>       1.00000000 </v>
  </varray>
 </kpoints>
 <parameters>
  <separator name="general" >
   <i type="string" name="SYSTEM">unknown system</i>
   <i type="logical" name="LCOMPAT"> F  </i>
  </separator>
  <separator name="electronic" >
   <i type="string" name="PREC">normal</i>
   <i name="ENMAX">    350.00000000</i>
   <i name="ENAUG">    644.87300000</i>
   <i name="EDIFF">      0.00010000</i>
   <i type="int" name="IALGO">    38</i>
   <i type="int" name="IWAVPR">    10</i>
   <i type="int" name="NBANDS">    24</i>
   <i name="NELECT">     10.00000000</i>
   <i type="int" name="TURBO">     0</i>
   <i type="int" name="IRESTART">     0</i>
   <i type="int" name="NREBOOT">     0</i>
   <i type="int" name="NMIN">     0</i>
   <i name="EREF">      0.00000000</i>
   <separator name="electronic smearing" >
    <i type="int" name="ISMEAR">     1</i>
    <i name="SIGMA">      0.20000000</i>
    <i name="KSPACING">      0.50000000</i>
    <i type="logical" name="KGAMMA"> T  </i>
   </separator>
   <separator name="electronic projectors" >
    <i type="logical" name="LREAL"> F  </i>
    <v name="ROPT">      0.00000000      0.00000000</v>
    <i type="int" name="LMAXPAW">  -100</i>
    <i type="int" name="LMAXMIX">     2</i>
    <i type="logical" name="NLSPLINE"> F  </i>
   </separator>
   <separator name="electronic startup" >
    <i type="int" name="ISTART">     1</i>
    <i type="int" name="ICHARG">     0</i>
    <i type="int" name="INIWAV">     1</i>
   </separator>
   <separator name="electronic spin" >
    <i type="int" name="ISPIN">     1</i>
    <i type="logical" name="LNONCOLLINEAR"> F  </i>
    <v name="MAGMOM">      1.00000000      1.00000000</v>
    <i name="NUPDOWN">     -1.00000000</i>
    <i type="logical" name="LSORBIT"> F  </i>
    <v name="SAXIS">      0.00000000      0.00000000      1.00000000</v>
    <i type="logical" name="LSPIRAL"> F  </i>
    <v name="QSPIRAL">      0.00000000      0.00000000      0.00000000</v>
    <i type="logical" name="LZEROZ"> F  </i>
   </separator>
   <separator name="electronic exchange-correlation" >
    <i type="logical" name="LASPH"> F  </i>
    <i type="logical" name="LMETAGGA"> F  </i>
   </separator>
   <separator name="electronic convergence" >
    <i type="int" name="NELM">    60</i>
    <i type="int" name="NELMDL">     0</i>
    <i type="int" name="NELMIN">     2</i>
    <i name="ENINI">    350.00000000</i>
    <separator name="electronic convergence detail" >
     <i type="logical" name="LDIAG"> T  </i>
     <i type="logical" name="LSUBROT"> F  </i>
     <i name="WEIMIN">      0.00000000</i>
     <i name="EBREAK">      0.00000104</i>
     <i name="DEPER">      0.30000000</i>
     <i type="int" name="NRMM">     4</i>
     <i name="TIME">      0.40000000</i>
    </separator>
   </separator>
   <separator name="electronic mixer" >
    <i name="AMIX">      0.40000000</i>
    <i name="BMIX">      1.00000000</i>
    <i name="AMIN">      0.10000000</i>
    <i name="AMIX_MAG">      1.60000000</i>
    <i name="BMIX_MAG">      1.00000000</i>
    <separator name="electronic mixer details" >
     <i type="int" name="IMIX">     4</i>
     <i type="logical" name="MIXFIRST"> F  </i>
     <i type="int" name="MAXMIX">   -45</i>
     <i name="WC">    100.00000000</i>
     <i type="int" name="INIMIX">     1</i>
     <i type="int" name="MIXPRE">     1</i>
     <i type="int" name="MREMOVE">     5</i>
    </separator>
   </separator>
   <separator name="electronic dipolcorrection" >
    <i type="logical" name="LDIPOL"> F  </i>
    <i type="logical" name="LMONO"> F  </i>
    <i type="int" name="IDIPOL">     0</i>
    <i name="EPSILON">      1.00000000</i>
    <v name="DIPOL">   -100.00000000   -100.00000000   -100.00000000</v>
    <i name="EFIELD">      0.00000000</i>
   </separator>
  </separator>
  <separator name="grids" >
   <i type="int" name="NGX">    28</i>
   <i type="int" name="NGY">    28</i>
   <i type="int" name="NGZ">    28</i>
   <i type="int" name="NGXF">    56</i>
   <i type="int" name="NGYF">    56</i>
   <i type="int" name="NGZF">    56</i>
   <i type="logical" name="ADDGRID"> F  </i>
  </separator>
  <separator name="ionic" >
   <i type="int" name="NSW">     0</i>
   <i type="int" name="IBRION">    -1</i>
   <i type="int" name="ISIF">     2</i>
   <i name="PSTRESS">      0.00000000</i>
   <i name="EDIFFG">      0.00100000</i>
   <i type="int" name="NFREE">     0</i>
   <i name="POTIM">      0.50000000</i>
   <i name="SMASS">     -3.00000000</i>
   <i name="SCALEE">      1.00000000</i>
  </separator>
  <separator name="ionic md" >
   <i name="TEBEG">      0.00010000</i>
   <i name="TEEND">      0.00010000</i>
   <i type="int" name="NBLOCK">     1</i>
   <i type="int" name="KBLOCK">     1</i>
   <i type="int" name="NPACO">   256</i>
   <i name="APACO">     16.00000000</i>
  </separator>
  <separator name="symmetry" >
   <i type="int" name="ISYM">     2</i>
   <i name="SYMPREC">      0.00001000</i>
  </separator>
  <separator name="dos" >
   <i type="logical" name="LORBIT"> F  </i>
   <v name="RWIGS">     -1.00000000     -1.00000000</v>
   <i type="int" name="NEDOS">   301</i>
   <i name="EMIN">     10.00000000</i>
   <i name="EMAX">    -10.00000000</i>
   <i name="EFERMI">      0.00000000</i>
  </separator>
  <separator name="writing" >
   <i type="int" name="NWRITE">     2</i>
   <i type="logical" name="LWAVE"> T  </i>
   <i type="logical" name="LCHARG"> T  </i>
   <i type="logical" name="LPARD"> F  </i>
   <i type="logical" name="LVTOT"> F  </i>
   <i type="logical" name="LVHAR"> F  </i>
   <i type="logical" name="LELF"> F  </i>
   <i type="logical" name="LOPTICS"> F  </i>
   <v name="STM">      0.00000000      0.00000000      0.00000000      0.00000000      0.00000000      0.00000000      0.00000000</v>
  </separator>
  <separator name="performance" >
   <i type="int" name="NPAR">    24</i>
   <i type="int" name="NSIM">     4</i>
   <i type="int" name="NBLK">    -1</i>
   <i type="logical" name="LPLANE"> T  </i>
   <i type="logical" name="LSCALAPACK"> F  </i>
   <i type="logical" name="LSCAAWARE"> F  </i>
   <i type="logical" name="LSCALU"> F  </i>
   <i type="logical" name="LASYNC"> F  </i>
   <i type="logical" name="LORBITALREAL"> F  </i>
  </separator>
  <separator name="miscellaneous" >
   <i type="int" name="IDIOT">     3</i>
   <i type="logical" name="LMUSIC"> F  </i>
   <v name="POMASS">     12.01100000     16.00000000</v>
   <v name="DARWINR">      0.00000000      0.00000000</v>
   <v name="DARWINV">      1.00000000      1.00000000</v>
   <i type="logical" name="LCORR"> T  </i>
  </separator>
  <i type="logical" name="GGA_COMPAT"> T  </i>
  <i type="logical" name="LBERRY"> F  </i>
  <i type="int" name="ICORELEVEL">     0</i>
  <i type="logical" name="LDAU"> F  </i>
  <i type="int" name="I_CONSTRAINED_M">     0</i>
  <separator name="electronic exchange-correlation" >
   <i type="string" name="GGA">PE</i>
   <i type="int" name="VOSKOWN">     0</i>
   <i type="logical" name="LHFCALC"> F  </i>
   <i type="string" name="PRECFOCK"></i>
   <i type="logical" name="LSYMGRAD"> F  </i>
   <i type="logical" name="LHFONE"> F  </i>
   <i type="logical" name="LRHFCALC"> F  </i>
   <i type="logical" name="LTHOMAS"> F  </i>
   <i type="logical" name="LMODELHF"> F  </i>
   <i name="ENCUT4O">     -1.00000000</i>
   <i type="int" name="EXXOEP">     0</i>
   <i type="int" name="FOURORBIT">     0</i>
   <i name="AEXX">      0.00000000</i>
   <i name="HFALPHA">      0.00000000</i>
   <i name="MCALPHA">      0.00000000</i>
   <i name="ALDAX">      1.00000000</i>
   <i name="AGGAX">      1.00000000</i>
   <i name="ALDAC">      1.00000000</i>
   <i name="AGGAC">      1.00000000</i>
   <i type="int" name="NKREDX">     1</i>
   <i type="int" name="NKREDY">     1</i>
   <i type="int" name="NKREDZ">     1</i>
   <i type="logical" name="SHIFTRED"> F  </i>
   <i type="logical" name="ODDONLY"> F  </i>
   <i type="logical" name="EVENONLY"> F  </i>
   <i type="int" name="LMAXFOCK">     0</i>
   <i type="int" name="NMAXFOCKAE">     0</i>
   <i type="logical" name="LFOCKAEDFT"> F  </i>
   <i name="HFSCREEN">      0.00000000</i>
   <i name="HFSCREENC">      0.00000000</i>
   <i type="int" name="NBANDSGWLOW">     0</i>
  </separator>
  <separator name="vdW DFT" >
   <i type="logical" name="LUSE_VDW"> F  </i>
   <i name="Zab_VDW">     -0.84910000</i>
   <i name="PARAM1">      0.12340000</i>
   <i name="PARAM2">      1.00000000</i>
   <i name="PARAM3">      0.00000000</i>
  </separator>
  <separator name="model GW" >
   <i type="int" name="MODEL_GW">     0</i>
   <i name="MODEL_EPS0">     64.80000000</i>
   <i name="MODEL_ALPHA">      1.00000000</i>
  </separator>
  <separator name="linear response parameters" >
   <i type="logical" name="LEPSILON"> F  </i>
   <i type="logical" name="LRPA"> F  </i>
   <i type="logical" name="LNABLA"> F  </i>
   <i type="logical" name="LVEL"> F  </i>
   <i type="int" name="KINTER">     0</i>
   <i name="CSHIFT">      0.10000000</i>
   <i name="OMEGAMAX">     -1.00000000</i>
   <i name="DEG_THRESHOLD">      0.00200000</i>
  </separator>
  <separator name="orbital magnetization" >
   <i type="logical" name="NUCIND"> F  </i>
   <v name="MAGPOS">      0.00000000      0.00000000      0.00000000</v>
   <i type="logical" name="LNICSALL"> T  </i>
   <i type="logical" name="ORBITALMAG"> F  </i>
   <i type="logical" name="LMAGBLOCH"> F  </i>
   <i type="logical" name="LCHIMAG"> F  </i>
   <i type="logical" name="LGAUGE"> T  </i>
   <i type="int" name="MAGATOM">     0</i>
   <v name="MAGDIPOL">      0.00000000      0.00000000      0.00000000</v>
   <v name="AVECCONST">      0.00000000      0.00000000      0.00000000</v>
  </separator>
  <separator name="response functions" >
   <i type="logical" name="LADDER"> F  </i>
   <i type="logical" name="LFXC"> F  </i>
   <i type="logical" name="LHARTREE"> T  </i>
   <i type="int" name="IBSE">     0</i>
   <v type="int" name="KPOINT">    -1     0     0     0</v>
   <i type="logical" name="LTCTE"> F  </i>
   <i type="logical" name="LTETE"> F  </i>
   <i type="logical" name="LTRIPLET"> F  </i>
   <i type="logical" name="LFXCEPS"> F  </i>
   <i type="logical" name="LFXHEG"> F  </i>
   <i type="int" name="NATURALO">     0</i>
   <i type="logical" name="L2ORDER"> F  </i>
   <i type="logical" name="LUSEW"> F  </i>
   <i name="ENCUTGW">     -2.00000000</i>
   <i name="ENCUTGWSOFT">     -2.00000000</i>
   <i name="ENCUTLF">     -1.00000000</i>
   <i type="int" name="LMAXMP2">    -1</i>
   <i name="SCISSOR">      0.00000000</i>
   <i type="int" name="NOMEGA">     0</i>
   <i type="int" name="NOMEGAR">     0</i>
   <i type="int" name="NBANDSGW">    -1</i>
   <i type="int" name="NBANDSO">    -1</i>
   <i type="int" name="NBANDSV">    -1</i>
   <i type="int" name="NELM">     1</i>
   <i type="int" name="NELMHF">     1</i>
   <i type="int" name="DIM">     3</i>
   <i type="int" name="ANTIRES">     0</i>
   <i name="OMEGAMAX">    -30.00000000</i>
   <i name="OMEGAMIN">    -30.00000000</i>
   <i name="OMEGATL">   -200.00000000</i>
   <i type="int" name="OMEGAGRID">     0</i>
   <i name="CSHIFT">     -0.10000000</i>
   <i type="logical" name="SELFENERGY"> F  </i>
   <i type="logical" name="LSPECTRAL"> F  </i>
   <i type="logical" name="LSPECTRALGW"> F  </i>
   <i type="logical" name="LSINGLES"> F  </i>
   <i type="logical" name="LFERMIGW"> F  </i>
   <i type="logical" name="ODDONLYGW"> F  </i>
   <i type="logical" name="EVENONLYGW"> F  </i>
   <i type="int" name="NKREDLFX">     1</i>
   <i type="int" name="NKREDLFY">     1</i>
   <i type="int" name="NKREDLFZ">     1</i>
   <i type="int" name="MAXMEM">  1800</i>
   <i type="int" name="TELESCOPE">     0</i>
   <i type="int" name="TAUPAR">     1</i>
   <i type="int" name="OMEGAPAR">    -1</i>
   <i name="LAMBDA">      1.00000000</i>
  </separator>
  <separator name="External order field" >
   <i name="OFIELD_KAPPA">      0.00000000</i>
   <v name="OFIELD_K">      0.00000000      0.00000000      0.00000000</v>
   <i name="OFIELD_Q6_NEAR">      0.00000000</i>
   <i name="OFIELD_Q6_FAR">      0.00000000</i>
   <i name="OFIELD_A">      0.00000000</i>
  </separator>
 </parameters>
 <atominfo>
  <atoms>       2 </atoms>
  <types>       2 </types>
  <array name="atoms" >
   <dimension dim="1">ion</dimension>
   <field type="string">element</field>
   <field type="int">atomtype</field>
   <set>
    <rc><c>C </c><c>   1</c></rc>
    <rc><c>O </c><c>   2</c></rc>
   </set>
  </array>
  <array name="atomtypes" >
   <dimension dim="1">type</dimension>
   <field type="int">atomspertype</field>
   <field type="string">element</field>
   <field>mass</field>
   <field>valence</field>
   <field type="string">pseudopotential</field>
   <set>
    <rc><c>   1</c><c>C </c><c>     12.01100000</c><c>      4.00000000</c><c>  PAW_PBE C 08Apr2002                   </c></rc>
    <rc><c>   1</c><c>O </c><c>     16.00000000</c><c>      6.00000000</c><c>  PAW_PBE O 08Apr2002                   </c></rc>
   </set>
  </array>
 </atominfo>
 <structure name="initialpos" >
  <crystal>
   <varray name="basis" >
    <v>       6.00000000       0.00000000       0.00000000 </v>
    <v>       0.00000000       6.00000000       0.00000000 </v>
    <v>       0.00000000       0.00000000       6.00000000 </v>
   </varray>
   <i name="volume">    216.00000000 </i>
   <varray name="rec_basis" >
    <v>       0.16666667       0.00000000       0.00000000 </v>
    <v>       0.00000000       0.16666667       0.00000000 </v>
    <v>       0.00000000       0.00000000       0.16666667 </v>
   </varray>
  </crystal>
  <varray name="positions" >
   <v>       0.40000000       0.50000000       0.50000000 </v>
   <v>       0.60000000       0.50000000       0.50000000 </v>
  </varray>
 </structure>
 <calculation>
  <scstep>
   <time name="dav">    0.01    0.01</time>
   <time name="total">    0.03    0.03</time>
   <energy>
    <i name="alphaZ">      2.02295162 </i>
    <i name="ewald">    -47.36045935 </i>
    <i name="hartreedc">   -444.13727810 </i>
    <i name="XCdc">     39.93739484 </i>
    <i name="pawpsdc">    789.26441530 </i>
    <i name="pawaedc">   -791.53710559 </i>
    <i name="eentropy">      0.01159581 </i>
    <i name="bandstr">   -141.95253179 </i>
    <i name="atom">    579.07123046 </i>
    <i name="e_fr_energy">    -14.67978681 </i>
    <i name="e_wo_entrp">    -14.69138262 </i>
    <i name="e_0_energy">    -14.68365208 </i>
   </energy>
  </scstep>
  <scstep>
   <time name="dav">    0.01    0.01</time>
   <time name="total">    0.02    0.02</time>
   <energy>
    <i name="alphaZ">      2.02295162 </i>
    <i name="ewald">    -47.36045935 </i>
    <i name="hartreedc">   -444.13713120 </i>
    <i name="XCdc">     39.93736077 </i>
    <i name="pawpsdc">    789.26983259 </i>
    <i name="pawaedc">   -791.54251497 </i>
    <i name="eentropy">      0.01159581 </i>
    <i name="bandstr">   -141.95265255 </i>
    <i name="atom">    579.07123046 </i>
    <i name="e_fr_energy">    -14.67978681 </i>
    <i name="e_wo_entrp">    -14.69138262 </i>
    <i name="e_0_energy">    -14.68365208 </i>
   </energy>
  </scstep>
  <structure>
   <crystal>
    <varray name="basis" >
     <v>       6.00000000       0.00000000       0.00000000 </v>
     <v>       0.00000000       6.00000000       0.00000000 </v>
     <v>       0.00000000       0.00000000       6.00000000 </v>
    </varray>
    <i name="volume">    216.00000000 </i>
    <varray name="rec_basis" >
     <v>       0.16666667       0.00000000       0.00000000 </v>
     <v>       0.00000000       0.16666667       0.00000000 </v>
     <v>       0.00000000       0.00000000       0.16666667 </v>
    </varray>
   </crystal>
   <varray name="positions" >
    <v>       0.40000000       0.50000000       0.50000000 </v>
    <v>       0.60000000       0.50000000       0.50000000 </v>
   </varray>
  </structure>
  <varray name="forces" >
   <v>       5.09699270       0.00000000       0.00000000 </v>
   <v>      -5.09699270       0.00000000      -0.00000000 </v>
  </varray>
  <varray name="stress" >
   <v>     -66.56260873       0.00000000       0.00000000 </v>
   <v>       0.00000000     -17.63764037       0.00000000 </v>
   <v>       0.00000000       0.00000000     -17.63764037 </v>
  </varray>
  <energy>
   <i name="e_fr_energy">    -14.67978681 </i>
   <i name="e_wo_entrp">    -14.68365208 </i>
   <i name="e_0_energy">      0.01159581 </i>
  </energy>
  <time name="totalsc">    0.29    0.34</time>
  <eigenvalues>
   <array>
    <dimension dim="1">band</dimension>
    <dimension dim="2">kpoint</dimension>
    <dimension dim="3">spin</dimension>
    <field>eigene</field>
    <field>occ</field>
    <set>
     <set comment="spin 1">
      <set comment="kpoint 1">
       <r>  -27.8153    1.0000 </r>
       <r>  -13.4329    1.0000 </r>
       <r>  -10.6024    1.0000 </r>
       <r>  -10.6024    1.0000 </r>
       <r>   -8.5233    1.0000 </r>
       <r>   -1.9074    0.0000 </r>
       <r>   -1.9074    0.0000 </r>
       <r>   -0.2009    0.0000 </r>
       <r>    2.9420    0.0000 </r>
       <r>    3.0049    0.0000 </r>
       <r>    3.6116    0.0000 </r>
       <r>    3.6116    0.0000 </r>
       <r>    3.7057    0.0000 </r>
       <r>    5.0958    0.0000 </r>
       <r>    6.2069    0.0000 </r>
       <r>    7.1744    0.0000 </r>
       <r>    7.1744    0.0000 </r>
       <r>    7.2360    0.0000 </r>
       <r>    7.2943    0.0000 </r>
       <r>    7.3605    0.0000 </r>
       <r>    7.5679    0.0000 </r>
       <r>    7.5679    0.0000 </r>
       <r>    8.3134    0.0000 </r>
       <r>    8.3853    0.0000 </r>
      </set>
     </set>
    </set>
   </array>
  </eigenvalues>
  <separator name="orbital magnetization" >
   <v name="MAGDIPOLOUT">      0.00000000      0.00000000      0.00000000</v>
  </separator>
  <dos>
   <i name="efermi">     -8.35489876 </i>
   <total>
    <array>
     <dimension dim="1">gridpoints</dimension>
     <dimension dim="2">spin</dimension>
     <field>energy</field>
     <field>total</field>
     <field>integrated</field>
     <set>
      <set comment="spin 1">
       <r>   -29.8153     0.0000     0.0000 </r>
       <r>   -29.6813     0.0000     0.0000 </r>
       <r>   -29.5473    -0.0000    -0.0000 </r>
       <r>   -29.4133    -0.0000    -0.0000 </r>
       <r>   -29.2793    -0.0000    -0.0000 </r>
       <r>   -29.1453    -0.0000    -0.0000 </r>
       <r>   -29.0113    -0.0000    -0.0000 </r>
       <r>   -28.8773    -0.0000    -0.0000 </r>
       <r>   -28.7433    -0.0000    -0.0000 </r>
       <r>   -28.6093    -0.0000    -0.0000 </r>
       <r>   -28.4753    -0.0002    -0.0000 </r>
       <r>   -28.3413    -0.0093    -0.0013 </r>
       <r>   -28.2073    -0.1261    -0.0182 </r>
       <r>   -28.0733    -0.3848    -0.0697 </r>
       <r>   -27.9393     1.5840     0.1425 </r>
       <r>   -27.8053     7.0313     1.0848 </r>
       <r>   -27.6713     6.3333     1.9334 </r>
       <r>   -27.5373     0.9763     2.0643 </r>
       <r>   -27.4033    -0.3817     2.0131 </r>
       <r>   -27.2693    -0.0919     2.0008 </r>
       <r>   -27.1353    -0.0057     2.0000 </r>
       <r>   -27.0013    -0.0001     2.0000 </r>
       <r>   -26.8673    -0.0000     2.0000 </r>
       <r>   -26.7333    -0.0000     2.0000 </r>
       <r>   -26.5993    -0.0000     2.0000 </r>
       <r>   -26.4653    -0.0000     2.0000 </r>
       <r>   -26.3313     0.0000     2.0000 </r>
       <r>   -26.1972     0.0000     2.0000 </r>
       <r>   -26.0632     0.0000     2.0000 </r>
       <r>   -25.9292     0.0000     2.0000 </r>
       <r>   -25.7952     0.0000     2.0000 </r>
       <r>   -25.6612     0.0000     2.0000 </r>
       <r>   -25.5272     0.0000     2.0000 </r>
       <r>   -25.3932     0.0000     2.0000 </r>
       <r>   -25.2592     0.0000     2.0000 </r>
       <r>   -25.1252     0.0000     2.0000 </r>
       <r>   -24.9912     0.0000     2.0000 </r>
       <r>   -24.8572     0.0000     2.0000 </r>
       <r>   -24.7232     0.0000     2.0000 </r>
       <r>   -24.5892     0.0000     2.0000 </r>
       <r>   -24.4552     0.0000     2.0000 </r>
       <r>   -24.3212     0.0000     2.0000 </r>
       <r>   -24.1872     0.0000     2.0000 </r>
       <r>   -24.0532     0.0000     2.0000 </r>
       <r>   -23.9192     0.0000     2.0000 </r>
       <r>   -23.7852     0.0000     2.0000 </r>
       <r>   -23.6512     0.0000     2.0000 </r>
       <r>   -23.5172     0.0000     2.0000 </r>
       <r>   -23.3832     0.0000     2.0000 </r>
       <r>   -23.2492     0.0000     2.0000 </r>
       <r>   -23.1152     0.0000     2.0000 </r>
       <r>   -22.9812     0.0000     2.0000 </r>
       <r>   -22.8472     0.0000     2.0000 </r>
       <r>   -22.7132     0.0000     2.0000 </r>
       <r>   -22.5792     0.0000     2.0000 </r>
       <r>   -22.4452     0.0000     2.0000 </r>
       <r>   -22.3112     0.0000     2.0000 </r>
       <r>   -22.1772     0.0000     2.0000 </r>
       <r>   -22.0432     0.0000     2.0000 </r>
       <r>   -21.9092     0.0000     2.0000 </r>
       <r>   -21.7752     0.0000     2.0000 </r>
       <r>   -21.6412     0.0000     2.0000 </r>
       <r>   -21.5072     0.0000     2.0000 </r>
       <r>   -21.3732     0.0000     2.0000 </r>
       <r>   -21.2392     0.0000     2.0000 </r>
       <r>   -21.1052     0.0000     2.0000 </r>
       <r>   -20.9712     0.0000     2.0000 </r>
       <r>   -20.8372     0.0000     2.0000 </r>
       <r>   -20.7032     0.0000     2.0000 </r>
       <r>   -20.5692     0.0000     2.0000 </r>
       <r>   -20.4352     0.0000     2.0000 </r>
       <r>   -20.3012     0.0000     2.0000 </r>
       <r>   -20.1672     0.0000     2.0000 </r>
       <r>   -20.0332     0.0000     2.0000 </r>
       <r>   -19.8992     0.0000     2.0000 </r>
       <r>   -19.7652     0.0000     2.0000 </r>
       <r>   -19.6312     0.0000     2.0000 </r>
       <r>   -19.4972     0.0000     2.0000 </r>
       <r>   -19.3632     0.0000     2.0000 </r>
       <r>   -19.2291     0.0000     2.0000 </r>
       <r>   -19.0951     0.0000     2.0000 </r>
       <r>   -18.9611     0.0000     2.0000 </r>
       <r>   -18.8271     0.0000     2.0000 </r>
       <r>   -18.6931     0.0000     2.0000 </r>
       <r>   -18.5591     0.0000     2.0000 </r>
       <r>   -18.4251     0.0000     2.0000 </r>
       <r>   -18.2911     0.0000     2.0000 </r>
       <r>   -18.1571     0.0000     2.0000 </r>
       <r>   -18.0231     0.0000     2.0000 </r>
       <r>   -17.8891     0.0000     2.0000 </r>
       <r>   -17.7551     0.0000     2.0000 </r>
       <r>   -17.6211     0.0000     2.0000 </r>
       <r>   -17.4871     0.0000     2.0000 </r>
       <r>   -17.3531     0.0000     2.0000 </r>
       <r>   -17.2191     0.0000     2.0000 </r>
       <r>   -17.0851     0.0000     2.0000 </r>
       <r>   -16.9511     0.0000     2.0000 </r>
       <r>   -16.8171     0.0000     2.0000 </r>
       <r>   -16.6831     0.0000     2.0000 </r>
       <r>   -16.5491     0.0000     2.0000 </r>
       <r>   -16.4151     0.0000     2.0000 </r>
       <r>   -16.2811     0.0000     2.0000 </r>
       <r>   -16.1471     0.0000     2.0000 </r>
       <r>   -16.0131     0.0000     2.0000 </r>
       <r>   -15.8791     0.0000     2.0000 </r>
       <r>   -15.7451     0.0000     2.0000 </r>
       <r>   -15.6111     0.0000     2.0000 </r>
       <r>   -15.4771     0.0000     2.0000 </r>
       <r>   -15.3431     0.0000     2.0000 </r>
       <r>   -15.2091     0.0000     2.0000 </r>
       <r>   -15.0751    -0.0000     2.0000 </r>
       <r>   -14.9411    -0.0000     2.0000 </r>
       <r>   -14.8071    -0.0000     2.0000 </r>
       <r>   -14.6731    -0.0000     2.0000 </r>
       <r>   -14.5391    -0.0000     2.0000 </r>
       <r>   -14.4051    -0.0000     2.0000 </r>
       <r>   -14.2711    -0.0000     2.0000 </r>
       <r>   -14.1371    -0.0001     2.0000 </r>
       <r>   -14.0031    -0.0031     1.9996 </r>
       <r>   -13.8691    -0.0606     1.9915 </r>
       <r>   -13.7351    -0.3417     1.9457 </r>
       <r>   -13.6011     0.4089     2.0005 </r>
       <r>   -13.4671     5.3359     2.7155 </r>
       <r>   -13.3331     7.6402     3.7393 </r>
       <r>   -13.1991     2.4671     4.0699 </r>
       <r>   -13.0651    -0.3280     4.0259 </r>
       <r>   -12.9311    -0.1770     4.0022 </r>
       <r>   -12.7971    -0.0161     4.0001 </r>
       <r>   -12.6631    -0.0005     4.0000 </r>
       <r>   -12.5291    -0.0000     4.0000 </r>
       <r>   -12.3951    -0.0000     4.0000 </r>
       <r>   -12.2611    -0.0000     4.0000 </r>
       <r>   -12.1270    -0.0000     4.0000 </r>
       <r>   -11.9930    -0.0000     4.0000 </r>
       <r>   -11.8590    -0.0000     4.0000 </r>
       <r>   -11.7250    -0.0000     4.0000 </r>
       <r>   -11.5910    -0.0000     4.0000 </r>
       <r>   -11.4570    -0.0000     4.0000 </r>
       <r>   -11.3230    -0.0001     4.0000 </r>
       <r>   -11.1890    -0.0040     3.9995 </r>
       <r>   -11.0550    -0.0892     3.9875 </r>
       <r>   -10.9210    -0.6049     3.9064 </r>
       <r>   -10.7870     0.2449     3.9393 </r>
       <r>   -10.6530     9.2081     5.1732 </r>
       <r>   -10.5190    15.7573     7.2847 </r>
       <r>   -10.3850     6.2922     8.1278 </r>
       <r>   -10.2510    -0.4723     8.0645 </r>
       <r>   -10.1170    -0.4341     8.0064 </r>
       <r>    -9.9830    -0.0460     8.0002 </r>
       <r>    -9.8490    -0.0016     8.0000 </r>
       <r>    -9.7150    -0.0000     8.0000 </r>
       <r>    -9.5810    -0.0000     8.0000 </r>
       <r>    -9.4470    -0.0000     8.0000 </r>
       <r>    -9.3130    -0.0000     8.0000 </r>
       <r>    -9.1790    -0.0003     8.0000 </r>
       <r>    -9.0450    -0.0102     7.9986 </r>
       <r>    -8.9110    -0.1343     7.9806 </r>
       <r>    -8.7770    -0.3803     7.9296 </r>
       <r>    -8.6430     1.7281     8.1612 </r>
       <r>    -8.5090     7.1587     9.1205 </r>
       <r>    -8.3750     6.1679     9.9470 </r>
       <r>    -8.2410     0.8634    10.0627 </r>
       <r>    -8.1070    -0.3770    10.0122 </r>
       <r>    -7.9730    -0.0857    10.0007 </r>
       <r>    -7.8390    -0.0051    10.0000 </r>
       <r>    -7.7050    -0.0001    10.0000 </r>
       <r>    -7.5710    -0.0000    10.0000 </r>
       <r>    -7.4370    -0.0000    10.0000 </r>
       <r>    -7.3030    -0.0000    10.0000 </r>
       <r>    -7.1690    -0.0000    10.0000 </r>
       <r>    -7.0350     0.0000    10.0000 </r>
       <r>    -6.9010     0.0000    10.0000 </r>
       <r>    -6.7670     0.0000    10.0000 </r>
       <r>    -6.6330     0.0000    10.0000 </r>
       <r>    -6.4990     0.0000    10.0000 </r>
       <r>    -6.3650     0.0000    10.0000 </r>
       <r>    -6.2310     0.0000    10.0000 </r>
       <r>    -6.0970     0.0000    10.0000 </r>
       <r>    -5.9630     0.0000    10.0000 </r>
       <r>    -5.8290     0.0000    10.0000 </r>
       <r>    -5.6950     0.0000    10.0000 </r>
       <r>    -5.5610     0.0000    10.0000 </r>
       <r>    -5.4270     0.0000    10.0000 </r>
       <r>    -5.2930     0.0000    10.0000 </r>
       <r>    -5.1590     0.0000    10.0000 </r>
       <r>    -5.0249     0.0000    10.0000 </r>
       <r>    -4.8909     0.0000    10.0000 </r>
       <r>    -4.7569     0.0000    10.0000 </r>
       <r>    -4.6229     0.0000    10.0000 </r>
       <r>    -4.4889     0.0000    10.0000 </r>
       <r>    -4.3549     0.0000    10.0000 </r>
       <r>    -4.2209     0.0000    10.0000 </r>
       <r>    -4.0869     0.0000    10.0000 </r>
       <r>    -3.9529     0.0000    10.0000 </r>
       <r>    -3.8189     0.0000    10.0000 </r>
       <r>    -3.6849     0.0000    10.0000 </r>
       <r>    -3.5509    -0.0000    10.0000 </r>
       <r>    -3.4169    -0.0000    10.0000 </r>
       <r>    -3.2829    -0.0000    10.0000 </r>
       <r>    -3.1489    -0.0000    10.0000 </r>
       <r>    -3.0149    -0.0000    10.0000 </r>
       <r>    -2.8809    -0.0000    10.0000 </r>
       <r>    -2.7469    -0.0000    10.0000 </r>
       <r>    -2.6129    -0.0001    10.0000 </r>
       <r>    -2.4789    -0.0059     9.9992 </r>
       <r>    -2.3449    -0.1184     9.9833 </r>
       <r>    -2.2109    -0.6778     9.8925 </r>
       <r>    -2.0769     0.7671     9.9953 </r>
       <r>    -1.9429    10.5591    11.4102 </r>
       <r>    -1.8089    15.3288    13.4643 </r>
       <r>    -1.6749     5.0367    14.1393 </r>
       <r>    -1.5409    -0.6451    14.0528 </r>
       <r>    -1.4069    -0.3600    14.0046 </r>
       <r>    -1.2729    -0.0331    14.0001 </r>
       <r>    -1.1389    -0.0010    14.0000 </r>
       <r>    -1.0049    -0.0000    14.0000 </r>
       <r>    -0.8709    -0.0002    14.0000 </r>
       <r>    -0.7369    -0.0073    13.9990 </r>
       <r>    -0.6029    -0.1081    13.9845 </r>
       <r>    -0.4689    -0.3877    13.9326 </r>
       <r>    -0.3349     1.2656    14.1022 </r>
       <r>    -0.2009     6.7017    15.0002 </r>
       <r>    -0.0669     6.7001    15.8980 </r>
       <r>     0.0671     1.2642    16.0674 </r>
       <r>     0.2011    -0.3877    16.0155 </r>
       <r>     0.3351    -0.1080    16.0010 </r>
       <r>     0.4691    -0.0073    16.0000 </r>
       <r>     0.6031    -0.0002    16.0000 </r>
       <r>     0.7371    -0.0000    16.0000 </r>
       <r>     0.8711    -0.0000    16.0000 </r>
       <r>     1.0051    -0.0000    16.0000 </r>
       <r>     1.1391    -0.0000    16.0000 </r>
       <r>     1.2731    -0.0000    16.0000 </r>
       <r>     1.4071    -0.0000    16.0000 </r>
       <r>     1.5411    -0.0000    16.0000 </r>
       <r>     1.6751    -0.0000    16.0000 </r>
       <r>     1.8091    -0.0000    16.0000 </r>
       <r>     1.9432    -0.0000    16.0000 </r>
       <r>     2.0772    -0.0000    16.0000 </r>
       <r>     2.2112    -0.0000    16.0000 </r>
       <r>     2.3452    -0.0017    15.9998 </r>
       <r>     2.4792    -0.0459    15.9936 </r>
       <r>     2.6132    -0.4024    15.9397 </r>
       <r>     2.7472    -0.4022    15.8858 </r>
       <r>     2.8812     5.7348    16.6543 </r>
       <r>     3.0152    14.9828    18.6620 </r>
       <r>     3.1492     9.8373    19.9802 </r>
       <r>     3.2832     0.1875    20.0053 </r>
       <r>     3.4172    -1.0196    19.8687 </r>
       <r>     3.5512     8.9048    21.0620 </r>
       <r>     3.6852    21.8013    23.9834 </r>
       <r>     3.8192    14.4822    25.9240 </r>
       <r>     3.9532     1.6394    26.1437 </r>
       <r>     4.0872    -0.8548    26.0292 </r>
       <r>     4.2212    -0.2035    26.0019 </r>
       <r>     4.3552    -0.0139    26.0000 </r>
       <r>     4.4892    -0.0015    25.9998 </r>
       <r>     4.6232    -0.0300    25.9958 </r>
       <r>     4.7572    -0.2503    25.9623 </r>
       <r>     4.8912    -0.1266    25.9453 </r>
       <r>     5.0252     3.7064    26.4420 </r>
       <r>     5.1592     7.9554    27.5080 </r>
       <r>     5.2932     4.0257    28.0475 </r>
       <r>     5.4272    -0.0492    28.0409 </r>
       <r>     5.5612    -0.2695    28.0048 </r>
       <r>     5.6952    -0.0476    27.9984 </r>
       <r>     5.8292    -0.1564    27.9774 </r>
       <r>     5.9632    -0.3608    27.9291 </r>
       <r>     6.0972     2.0897    28.2091 </r>
       <r>     6.2312     7.4273    29.2044 </r>
       <r>     6.3652     5.7569    29.9758 </r>
       <r>     6.4992     0.6177    30.0586 </r>
       <r>     6.6332    -0.3757    30.0082 </r>
       <r>     6.7672    -0.3144    29.9661 </r>
       <r>     6.9012    -1.1990    29.8054 </r>
       <r>     7.0352     1.4522    30.0000 </r>
       <r>     7.1692    18.2558    32.4464 </r>
       <r>     7.3032    32.2346    36.7659 </r>
       <r>     7.4372    23.7496    39.9483 </r>
       <r>     7.5712    17.2080    42.2542 </r>
       <r>     7.7052    12.1012    43.8758 </r>
       <r>     7.8392     1.9174    44.1328 </r>
       <r>     7.9732    -1.1453    43.9793 </r>
       <r>     8.1072    -0.7294    43.8816 </r>
       <r>     8.2412     4.6010    44.4981 </r>
       <r>     8.3752    14.2844    46.4122 </r>
       <r>     8.5092    11.1263    47.9032 </r>
       <r>     8.6432     1.5532    48.1113 </r>
       <r>     8.7772    -0.6579    48.0232 </r>
       <r>     8.9112    -0.1618    48.0015 </r>
       <r>     9.0453    -0.0107    48.0000 </r>
       <r>     9.1793    -0.0003    48.0000 </r>
       <r>     9.3133    -0.0000    48.0000 </r>
       <r>     9.4473    -0.0000    48.0000 </r>
       <r>     9.5813    -0.0000    48.0000 </r>
       <r>     9.7153    -0.0000    48.0000 </r>
       <r>     9.8493     0.0000    48.0000 </r>
       <r>     9.9833     0.0000    48.0000 </r>
       <r>    10.1173     0.0000    48.0000 </r>
       <r>    10.2513     0.0000    48.0000 </r>
       <r>    10.3853     0.0000    48.0000 </r>
      </set>
     </set>
    </array>
   </total>
  </dos>
 </calculation>
 <structure name="finalpos" >
  <crystal>
   <varray name="basis" >
    <v>       6.00000000       0.00000000       0.00000000 </v>
    <v>       0.00000000       6.00000000       0.00000000 </v>
    <v>       0.00000000       0.00000000       6.00000000 </v>
   </varray>
   <i name="volume">    216.00000000 </i>
   <varray name="rec_basis" >
    <v>       0.16666667       0.00000000       0.00000000 </v>
    <v>       0.00000000       0.16666667       0.00000000 </v>
    <v>       0.00000000       0.00000000       0.16666667 </v>
   </varray>
  </crystal>
  <varray name="positions" >
   <v>       0.40000000       0.50000000       0.50000000 </v>
   <v>       0.60000000       0.50000000       0.50000000 </v>
  </varray>
 </structure>
</modeling>
