Loading python/3.10.5
  Loading requirement: tcl/8.6.10
Loading python/3.10.5
  Loading requirement: tcl/8.6.10
 running on   24 total cores
 distrk:  each k-point on   24 cores,    1 groups
 distr:  one band on    1 cores,   24 groups
 using from now: INCAR     
 vasp.5.4.1 05Feb16 (build Apr 25 2018 11:37:45) complex                        
  
 POSCAR found type information on POSCAR  C  O 
 POSCAR found :  2 types and       2 ions

 ----------------------------------------------------------------------------- 
|                                                                             |
|           W    W    AA    RRRRR   N    N  II  N    N   GGGG   !!!           |
|           W    W   A  A   R    R  NN   N  II  NN   N  G    G  !!!           |
|           W    W  A    A  R    R  N N  N  II  N N  N  G       !!!           |
|           W WW W  AAAAAA  RRRRR   N  N N  II  N  N N  G  GGG   !            |
|           WW  WW  A    A  R   R   N   NN  II  N   NN  G    G                |
|           W    W  A    A  R    R  N    N  II  N    N   GGGG   !!!           |
|                                                                             |
|      For optimal performance we recommend to set                            |
|        NCORE= 4 - approx SQRT( number of cores)                             |
|      NCORE specifies how many cores store one orbital (NPAR=cpu/NCORE).     |
|      This setting can  greatly improve the performance of VASP for DFT.     |
|      The default, NPAR=number of cores might be grossly inefficient         |
|      on modern multi-core architectures or massively parallel machines.     |
|      Do your own testing !!!!                                               |
|      Unfortunately you need to use the default for GW and RPA calculations. |
|      (for HF NCORE is supported but not extensively tested yet)             |
|                                                                             |
 ----------------------------------------------------------------------------- 

 LDA part: xc-table for Pade appr. of Perdew
 POSCAR found type information on POSCAR  C  O 
 POSCAR found :  2 types and       2 ions
 POSCAR, INCAR and KPOINTS ok, starting setup
 WARNING: small aliasing (wrap around) errors must be expected
 FFT: planning ...
 WAVECAR not read
 entering main loop
       N       E                     dE             d eps       ncg     rms          rms(c)
DAV:   1     0.566023048303E+02    0.56602E+02   -0.26906E+03    48   0.186E+02
DAV:   2    -0.144485631859E+02   -0.71051E+02   -0.71051E+02    96   0.572E+01
DAV:   3    -0.152282552559E+02   -0.77969E+00   -0.77969E+00    48   0.101E+01
DAV:   4    -0.152310787517E+02   -0.28235E-02   -0.28235E-02    48   0.639E-01
DAV:   5    -0.152311001412E+02   -0.21390E-04   -0.21391E-04    48   0.543E-02    0.618E+00
DAV:   6    -0.147688171389E+02    0.46228E+00   -0.37140E+00    96   0.464E+00    0.355E+00
DAV:   7    -0.146591859593E+02    0.10963E+00   -0.74509E-01    72   0.193E+00    0.195E+00
DAV:   8    -0.146201286239E+02    0.39057E-01   -0.14680E-01    96   0.104E+00    0.369E-01
DAV:   9    -0.146198734531E+02    0.25517E-03   -0.33027E-03    48   0.184E-01    0.705E-02
DAV:  10    -0.146207542270E+02   -0.88077E-03   -0.18756E-04    72   0.468E-02    0.299E-02
DAV:  11    -0.146228066766E+02   -0.20524E-02   -0.41590E-04    48   0.387E-02    0.140E-02
DAV:  12    -0.146235254924E+02   -0.71882E-03   -0.59710E-05    48   0.170E-02    0.968E-03
DAV:  13    -0.146241245794E+02   -0.59909E-03   -0.10444E-04    72   0.169E-02    0.314E-03
DAV:  14    -0.146242609728E+02   -0.13639E-03   -0.13139E-05    96   0.598E-03    0.168E-03
DAV:  15    -0.146242907012E+02   -0.29728E-04   -0.15661E-06    96   0.238E-03
   1 F= -.14624291E+02 E0= -.14628156E+02  d E =0.115958E-01
 writing wavefunctions
Loading python/3.10.5
  Loading requirement: tcl/8.6.10
