   2   2   0   0
  0.2560000E+03  0.8000000E-09  0.8000000E-09  0.8000000E-09  0.5000000E-15
  1.000000000000000E-004
  CAR 
 unknown system                          
      6.40659422    -30.21848888  301     -8.72044428      1.00000000
    -30.218  0.0000E+00  0.0000E+00
    -30.096  0.0000E+00  0.0000E+00
    -29.974  0.0000E+00  0.0000E+00
    -29.852 -0.3955E-27 -0.4828E-28
    -29.730 -0.5403E-23 -0.6597E-24
    -29.608 -0.3481E-19 -0.4250E-20
    -29.486 -0.1056E-15 -0.1290E-16
    -29.364 -0.1460E-12 -0.1784E-13
    -29.242 -0.9696E-10 -0.1186E-10
    -29.120 -0.2998E-07 -0.3673E-08
    -28.998 -0.4287E-05 -0.5271E-06
    -28.876 -0.2796E-03 -0.3467E-04
    -28.753 -0.8096E-02 -0.1023E-02
    -28.631 -0.9734E-01 -0.1291E-01
    -28.509 -0.3798E+00 -0.5928E-01
    -28.387  0.4789E+00 -0.8089E-03
    -28.265  0.5059E+01  0.6168E+00
    -28.143  0.7978E+01  0.1591E+01
    -28.021  0.3742E+01  0.2048E+01
    -27.899 -0.1020E-01  0.2046E+01
    -27.777 -0.3163E+00  0.2008E+01
    -27.655 -0.5905E-01  0.2000E+01
    -27.533 -0.3951E-02  0.2000E+01
    -27.411 -0.1123E-03  0.2000E+01
    -27.288 -0.1429E-05  0.2000E+01
    -27.166 -0.8323E-08  0.2000E+01
    -27.044 -0.2247E-10  0.2000E+01
    -26.922 -0.2910E-13  0.2000E+01
    -26.800  0.0000E+00  0.2000E+01
    -26.678  0.0000E+00  0.2000E+01
    -26.556  0.0000E+00  0.2000E+01
    -26.434  0.0000E+00  0.2000E+01
    -26.312  0.0000E+00  0.2000E+01
    -26.190  0.0000E+00  0.2000E+01
    -26.068  0.0000E+00  0.2000E+01
    -25.946  0.0000E+00  0.2000E+01
    -25.823  0.0000E+00  0.2000E+01
    -25.701  0.0000E+00  0.2000E+01
    -25.579  0.0000E+00  0.2000E+01
    -25.457  0.0000E+00  0.2000E+01
    -25.335  0.0000E+00  0.2000E+01
    -25.213  0.0000E+00  0.2000E+01
    -25.091  0.0000E+00  0.2000E+01
    -24.969  0.0000E+00  0.2000E+01
    -24.847  0.0000E+00  0.2000E+01
    -24.725  0.0000E+00  0.2000E+01
    -24.603  0.0000E+00  0.2000E+01
    -24.481  0.0000E+00  0.2000E+01
    -24.358  0.0000E+00  0.2000E+01
    -24.236  0.0000E+00  0.2000E+01
    -24.114  0.0000E+00  0.2000E+01
    -23.992  0.0000E+00  0.2000E+01
    -23.870  0.0000E+00  0.2000E+01
    -23.748  0.0000E+00  0.2000E+01
    -23.626  0.0000E+00  0.2000E+01
    -23.504  0.0000E+00  0.2000E+01
    -23.382  0.0000E+00  0.2000E+01
    -23.260  0.0000E+00  0.2000E+01
    -23.138  0.0000E+00  0.2000E+01
    -23.016  0.0000E+00  0.2000E+01
    -22.893  0.0000E+00  0.2000E+01
    -22.771  0.0000E+00  0.2000E+01
    -22.649  0.0000E+00  0.2000E+01
    -22.527  0.0000E+00  0.2000E+01
    -22.405  0.0000E+00  0.2000E+01
    -22.283  0.0000E+00  0.2000E+01
    -22.161  0.0000E+00  0.2000E+01
    -22.039  0.0000E+00  0.2000E+01
    -21.917  0.0000E+00  0.2000E+01
    -21.795  0.0000E+00  0.2000E+01
    -21.673  0.0000E+00  0.2000E+01
    -21.551  0.0000E+00  0.2000E+01
    -21.428  0.0000E+00  0.2000E+01
    -21.306  0.0000E+00  0.2000E+01
    -21.184  0.0000E+00  0.2000E+01
    -21.062  0.0000E+00  0.2000E+01
    -20.940  0.0000E+00  0.2000E+01
    -20.818  0.0000E+00  0.2000E+01
    -20.696  0.0000E+00  0.2000E+01
    -20.574  0.0000E+00  0.2000E+01
    -20.452  0.0000E+00  0.2000E+01
    -20.330  0.0000E+00  0.2000E+01
    -20.208  0.0000E+00  0.2000E+01
    -20.086  0.0000E+00  0.2000E+01
    -19.963  0.0000E+00  0.2000E+01
    -19.841  0.0000E+00  0.2000E+01
    -19.719  0.0000E+00  0.2000E+01
    -19.597  0.0000E+00  0.2000E+01
    -19.475  0.0000E+00  0.2000E+01
    -19.353  0.0000E+00  0.2000E+01
    -19.231  0.0000E+00  0.2000E+01
    -19.109  0.0000E+00  0.2000E+01
    -18.987  0.0000E+00  0.2000E+01
    -18.865  0.0000E+00  0.2000E+01
    -18.743  0.0000E+00  0.2000E+01
    -18.621  0.0000E+00  0.2000E+01
    -18.498  0.0000E+00  0.2000E+01
    -18.376  0.0000E+00  0.2000E+01
    -18.254  0.0000E+00  0.2000E+01
    -18.132  0.0000E+00  0.2000E+01
    -18.010  0.0000E+00  0.2000E+01
    -17.888  0.0000E+00  0.2000E+01
    -17.766  0.0000E+00  0.2000E+01
    -17.644  0.0000E+00  0.2000E+01
    -17.522  0.0000E+00  0.2000E+01
    -17.400  0.0000E+00  0.2000E+01
    -17.278  0.0000E+00  0.2000E+01
    -17.156  0.0000E+00  0.2000E+01
    -17.033  0.0000E+00  0.2000E+01
    -16.911  0.0000E+00  0.2000E+01
    -16.789  0.0000E+00  0.2000E+01
    -16.667  0.0000E+00  0.2000E+01
    -16.545  0.0000E+00  0.2000E+01
    -16.423  0.0000E+00  0.2000E+01
    -16.301  0.0000E+00  0.2000E+01
    -16.179  0.0000E+00  0.2000E+01
    -16.057  0.0000E+00  0.2000E+01
    -15.935  0.0000E+00  0.2000E+01
    -15.813  0.0000E+00  0.2000E+01
    -15.691  0.0000E+00  0.2000E+01
    -15.568  0.0000E+00  0.2000E+01
    -15.446 -0.5161E-26  0.2000E+01
    -15.324 -0.5790E-22  0.2000E+01
    -15.202 -0.3062E-18  0.2000E+01
    -15.080 -0.7623E-15  0.2000E+01
    -14.958 -0.8636E-12  0.2000E+01
    -14.836 -0.4694E-09  0.2000E+01
    -14.714 -0.1187E-06  0.2000E+01
    -14.592 -0.1384E-04  0.2000E+01
    -14.470 -0.7321E-03  0.2000E+01
    -14.348 -0.1699E-01  0.1998E+01
    -14.226 -0.1583E+00  0.1979E+01
    -14.103 -0.3938E+00  0.1930E+01
    -13.981  0.1322E+01  0.2092E+01
    -13.859  0.6425E+01  0.2876E+01
    -13.737  0.7399E+01  0.3780E+01
    -13.615  0.2370E+01  0.4069E+01
    -13.493 -0.3005E+00  0.4032E+01
    -13.371 -0.2303E+00  0.4004E+01
    -13.249 -0.3175E-01  0.4000E+01
    -13.127 -0.1683E-02  0.4000E+01
    -13.005 -0.3861E-04  0.4000E+01
    -12.883 -0.3996E-06  0.4000E+01
    -12.761 -0.1902E-08  0.4000E+01
    -12.638 -0.4201E-11  0.4000E+01
    -12.516 -0.3638E-14  0.4000E+01
    -12.394 -0.9244E-19  0.4000E+01
    -12.272 -0.2734E-15  0.4000E+01
    -12.150 -0.3691E-12  0.4000E+01
    -12.028 -0.2384E-09  0.4000E+01
    -11.906 -0.7184E-07  0.4000E+01
    -11.784 -0.1001E-04  0.4000E+01
    -11.662 -0.6352E-03  0.4000E+01
    -11.540 -0.1788E-01  0.3998E+01
    -11.418 -0.2082E+00  0.3972E+01
    -11.296 -0.7721E+00  0.3878E+01
    -11.173  0.1139E+01  0.4017E+01
    -11.051  0.1049E+02  0.5298E+01
    -10.929  0.1587E+02  0.7236E+01
    -10.807  0.7111E+01  0.8104E+01
    -10.685 -0.1228E+00  0.8089E+01
    -10.563 -0.6109E+00  0.8014E+01
    -10.441 -0.1094E+00  0.8001E+01
    -10.319 -0.7101E-02  0.8000E+01
    -10.197 -0.1963E-03  0.8000E+01
    -10.075 -0.2431E-05  0.8000E+01
     -9.953 -0.1381E-07  0.8000E+01
     -9.831 -0.4918E-08  0.8000E+01
     -9.708 -0.9023E-06  0.8000E+01
     -9.586 -0.7649E-04  0.8000E+01
     -9.464 -0.2912E-02  0.8000E+01
     -9.342 -0.4743E-01  0.7994E+01
     -9.220 -0.2851E+00  0.7959E+01
     -9.098 -0.1439E+00  0.7941E+01
     -8.976  0.3220E+01  0.8335E+01
     -8.854  0.7834E+01  0.9291E+01
     -8.732  0.5582E+01  0.9972E+01
     -8.610  0.7496E+00  0.1006E+02
     -8.488 -0.3947E+00  0.1002E+02
     -8.366 -0.1173E+00  0.1000E+02
     -8.243 -0.1069E-01  0.1000E+02
     -8.121 -0.4001E-03  0.1000E+02
     -7.999 -0.6621E-05  0.1000E+02
     -7.877 -0.4989E-07  0.1000E+02
     -7.755 -0.1736E-09  0.1000E+02
     -7.633 -0.2801E-12  0.1000E+02
     -7.511  0.0000E+00  0.1000E+02
     -7.389  0.0000E+00  0.1000E+02
     -7.267  0.0000E+00  0.1000E+02
     -7.145  0.0000E+00  0.1000E+02
     -7.023  0.0000E+00  0.1000E+02
     -6.901  0.0000E+00  0.1000E+02
     -6.778  0.0000E+00  0.1000E+02
     -6.656  0.0000E+00  0.1000E+02
     -6.534  0.0000E+00  0.1000E+02
     -6.412  0.0000E+00  0.1000E+02
     -6.290  0.0000E+00  0.1000E+02
     -6.168  0.0000E+00  0.1000E+02
     -6.046  0.0000E+00  0.1000E+02
     -5.924  0.0000E+00  0.1000E+02
     -5.802  0.0000E+00  0.1000E+02
     -5.680  0.0000E+00  0.1000E+02
     -5.558  0.0000E+00  0.1000E+02
     -5.436  0.0000E+00  0.1000E+02
     -5.313  0.0000E+00  0.1000E+02
     -5.191  0.0000E+00  0.1000E+02
     -5.069  0.0000E+00  0.1000E+02
     -4.947  0.0000E+00  0.1000E+02
     -4.825  0.0000E+00  0.1000E+02
     -4.703  0.0000E+00  0.1000E+02
     -4.581  0.0000E+00  0.1000E+02
     -4.459  0.0000E+00  0.1000E+02
     -4.337  0.0000E+00  0.1000E+02
     -4.215  0.0000E+00  0.1000E+02
     -4.093  0.0000E+00  0.1000E+02
     -3.971 -0.4104E-26  0.1000E+02
     -3.848 -0.4944E-22  0.1000E+02
     -3.726 -0.2808E-18  0.1000E+02
     -3.604 -0.7508E-15  0.1000E+02
     -3.482 -0.9144E-12  0.1000E+02
     -3.360 -0.5342E-09  0.1000E+02
     -3.238 -0.1453E-06  0.1000E+02
     -3.116 -0.1824E-04  0.1000E+02
     -2.994 -0.1041E-02  0.1000E+02
     -2.872 -0.2618E-01  0.9997E+01
     -2.750 -0.2680E+00  0.9964E+01
     -2.628 -0.7982E+00  0.9867E+01
     -2.506  0.1960E+01  0.1011E+02
     -2.383  0.1191E+02  0.1156E+02
     -2.261  0.1535E+02  0.1343E+02
     -2.139  0.5688E+01  0.1413E+02
     -2.017 -0.4444E+00  0.1407E+02
     -1.895 -0.5227E+00  0.1401E+02
     -1.773 -0.8006E-01  0.1400E+02
     -1.651 -0.4612E-02  0.1400E+02
     -1.529 -0.1143E-03  0.1400E+02
     -1.407 -0.1274E-05  0.1400E+02
     -1.285 -0.6719E-08  0.1400E+02
     -1.163 -0.5535E-07  0.1400E+02
     -1.041 -0.7233E-05  0.1400E+02
     -0.918 -0.4303E-03  0.1400E+02
     -0.796 -0.1131E-01  0.1400E+02
     -0.674 -0.1218E+00  0.1398E+02
     -0.552 -0.3965E+00  0.1394E+02
     -0.430  0.8105E+00  0.1403E+02
     -0.308  0.5686E+01  0.1473E+02
     -0.186  0.7794E+01  0.1568E+02
     -0.064  0.3115E+01  0.1606E+02
      0.058 -0.1672E+00  0.1604E+02
      0.180 -0.2786E+00  0.1601E+02
      0.302 -0.4529E-01  0.1600E+02
      0.424 -0.2732E-02  0.1600E+02
      0.547 -0.7063E-04  0.1600E+02
      0.669 -0.8207E-06  0.1600E+02
      0.791 -0.9892E-07  0.1600E+02
      0.913 -0.1141E-04  0.1600E+02
      1.035 -0.6263E-03  0.1600E+02
      1.157 -0.1518E-01  0.1600E+02
      1.279 -0.1519E+00  0.1598E+02
      1.401 -0.4998E+00  0.1592E+02
      1.523  0.3727E+00  0.1596E+02
      1.645  0.4899E+01  0.1656E+02
      1.767  0.1507E+02  0.1840E+02
      1.890  0.2999E+02  0.2206E+02
      2.012  0.2709E+02  0.2537E+02
      2.134  0.7085E+01  0.2623E+02
      2.256 -0.1571E+01  0.2604E+02
      2.378  0.1823E+01  0.2627E+02
      2.500  0.7445E+01  0.2717E+02
      2.622  0.6183E+01  0.2793E+02
      2.744  0.1140E+01  0.2807E+02
      2.866 -0.3983E+00  0.2802E+02
      2.988 -0.1455E+00  0.2800E+02
      3.110 -0.1811E-01  0.2800E+02
      3.232 -0.5188E-01  0.2799E+02
      3.355 -0.2963E+00  0.2796E+02
      3.477 -0.1066E+00  0.2794E+02
      3.599  0.3298E+01  0.2835E+02
      3.721  0.7167E+01  0.2922E+02
      3.843  0.4434E+01  0.2976E+02
      3.965  0.7153E+01  0.3064E+02
      4.087  0.2016E+02  0.3310E+02
      4.209  0.2811E+02  0.3653E+02
      4.331  0.4121E+02  0.4156E+02
      4.453  0.4089E+02  0.4655E+02
      4.575  0.1448E+02  0.4832E+02
      4.697 -0.9793E+00  0.4820E+02
      4.820 -0.1383E+01  0.4803E+02
      4.942 -0.2413E+00  0.4800E+02
      5.064 -0.1644E-01  0.4800E+02
      5.186 -0.4975E-03  0.4800E+02
      5.308 -0.6940E-05  0.4800E+02
      5.430 -0.4523E-07  0.4800E+02
      5.552 -0.1384E-09  0.4800E+02
      5.674 -0.1964E-12  0.4800E+02
      5.796  0.0000E+00  0.4800E+02
      5.918  0.0000E+00  0.4800E+02
      6.040  0.0000E+00  0.4800E+02
      6.162  0.0000E+00  0.4800E+02
      6.285  0.0000E+00  0.4800E+02
      6.407  0.0000E+00  0.4800E+02
