       N       E                     dE             d eps       ncg     rms          rms(c)
DAV:   1    -0.146243093410E+02   -0.14624E+02   -0.21086E-06    48   0.228E-03    0.265E-04
DAV:   2    -0.146243093426E+02   -0.15881E-08   -0.15520E-08    48   0.329E-04
   1 F= -.14624309E+02 E0= -.14628175E+02  d E =0.115958E-01
