<?xml version="1.0" encoding="ISO-8859-1"?>
<modeling>
 <generator>
  <i name="program" type="string">vasp </i>
  <i name="version" type="string">5.4.1  </i>
  <i name="subversion" type="string">05Feb16 (build Apr 25 2018 11:37:45) complex                          parallel </i>
  <i name="platform" type="string">LinuxIFC </i>
  <i name="date" type="string">2023 01 29 </i>
  <i name="time" type="string">13:38:53 </i>
 </generator>
 <incar>
  <i type="string" name="PREC">normal</i>
  <i name="ENCUT">    350.00000000</i>
  <v type="int" name="KPOINT_BSE">    -1     0     0     0</v>
  <i type="string" name="GGA"> PE</i>
 </incar>
 <kpoints>
  <generation param="Monkhorst-Pack">
   <v type="int" name="divisions">       1        1        1 </v>
   <v name="usershift">      0.00000000       0.00000000       0.00000000 </v>
   <v name="genvec1">      1.00000000       0.00000000       0.00000000 </v>
   <v name="genvec2">      0.00000000       1.00000000       0.00000000 </v>
   <v name="genvec3">      0.00000000       0.00000000       1.00000000 </v>
   <v name="shift">      0.00000000       0.00000000       0.00000000 </v>
  </generation>
  <varray name="kpointlist" >
   <v>       0.00000000       0.00000000       0.00000000 </v>
  </varray>
  <varray name="weights" >
   <v>       1.00000000 </v>
  </varray>
 </kpoints>
 <parameters>
  <separator name="general" >
   <i type="string" name="SYSTEM">unknown system</i>
   <i type="logical" name="LCOMPAT"> F  </i>
  </separator>
  <separator name="electronic" >
   <i type="string" name="PREC">normal</i>
   <i name="ENMAX">    350.00000000</i>
   <i name="ENAUG">    644.87300000</i>
   <i name="EDIFF">      0.00010000</i>
   <i type="int" name="IALGO">    38</i>
   <i type="int" name="IWAVPR">    10</i>
   <i type="int" name="NBANDS">    24</i>
   <i name="NELECT">     10.00000000</i>
   <i type="int" name="TURBO">     0</i>
   <i type="int" name="IRESTART">     0</i>
   <i type="int" name="NREBOOT">     0</i>
   <i type="int" name="NMIN">     0</i>
   <i name="EREF">      0.00000000</i>
   <separator name="electronic smearing" >
    <i type="int" name="ISMEAR">     1</i>
    <i name="SIGMA">      0.20000000</i>
    <i name="KSPACING">      0.50000000</i>
    <i type="logical" name="KGAMMA"> T  </i>
   </separator>
   <separator name="electronic projectors" >
    <i type="logical" name="LREAL"> F  </i>
    <v name="ROPT">      0.00000000      0.00000000</v>
    <i type="int" name="LMAXPAW">  -100</i>
    <i type="int" name="LMAXMIX">     2</i>
    <i type="logical" name="NLSPLINE"> F  </i>
   </separator>
   <separator name="electronic startup" >
    <i type="int" name="ISTART">     1</i>
    <i type="int" name="ICHARG">     0</i>
    <i type="int" name="INIWAV">     1</i>
   </separator>
   <separator name="electronic spin" >
    <i type="int" name="ISPIN">     1</i>
    <i type="logical" name="LNONCOLLINEAR"> F  </i>
    <v name="MAGMOM">      1.00000000      1.00000000</v>
    <i name="NUPDOWN">     -1.00000000</i>
    <i type="logical" name="LSORBIT"> F  </i>
    <v name="SAXIS">      0.00000000      0.00000000      1.00000000</v>
    <i type="logical" name="LSPIRAL"> F  </i>
    <v name="QSPIRAL">      0.00000000      0.00000000      0.00000000</v>
    <i type="logical" name="LZEROZ"> F  </i>
   </separator>
   <separator name="electronic exchange-correlation" >
    <i type="logical" name="LASPH"> F  </i>
    <i type="logical" name="LMETAGGA"> F  </i>
   </separator>
   <separator name="electronic convergence" >
    <i type="int" name="NELM">    60</i>
    <i type="int" name="NELMDL">     0</i>
    <i type="int" name="NELMIN">     2</i>
    <i name="ENINI">    350.00000000</i>
    <separator name="electronic convergence detail" >
     <i type="logical" name="LDIAG"> T  </i>
     <i type="logical" name="LSUBROT"> F  </i>
     <i name="WEIMIN">      0.00000000</i>
     <i name="EBREAK">      0.00000104</i>
     <i name="DEPER">      0.30000000</i>
     <i type="int" name="NRMM">     4</i>
     <i name="TIME">      0.40000000</i>
    </separator>
   </separator>
   <separator name="electronic mixer" >
    <i name="AMIX">      0.40000000</i>
    <i name="BMIX">      1.00000000</i>
    <i name="AMIN">      0.10000000</i>
    <i name="AMIX_MAG">      1.60000000</i>
    <i name="BMIX_MAG">      1.00000000</i>
    <separator name="electronic mixer details" >
     <i type="int" name="IMIX">     4</i>
     <i type="logical" name="MIXFIRST"> F  </i>
     <i type="int" name="MAXMIX">   -45</i>
     <i name="WC">    100.00000000</i>
     <i type="int" name="INIMIX">     1</i>
     <i type="int" name="MIXPRE">     1</i>
     <i type="int" name="MREMOVE">     5</i>
    </separator>
   </separator>
   <separator name="electronic dipolcorrection" >
    <i type="logical" name="LDIPOL"> F  </i>
    <i type="logical" name="LMONO"> F  </i>
    <i type="int" name="IDIPOL">     0</i>
    <i name="EPSILON">      1.00000000</i>
    <v name="DIPOL">   -100.00000000   -100.00000000   -100.00000000</v>
    <i name="EFIELD">      0.00000000</i>
   </separator>
  </separator>
  <separator name="grids" >
   <i type="int" name="NGX">    40</i>
   <i type="int" name="NGY">    40</i>
   <i type="int" name="NGZ">    40</i>
   <i type="int" name="NGXF">    80</i>
   <i type="int" name="NGYF">    80</i>
   <i type="int" name="NGZF">    80</i>
   <i type="logical" name="ADDGRID"> F  </i>
  </separator>
  <separator name="ionic" >
   <i type="int" name="NSW">     0</i>
   <i type="int" name="IBRION">    -1</i>
   <i type="int" name="ISIF">     2</i>
   <i name="PSTRESS">      0.00000000</i>
   <i name="EDIFFG">      0.00100000</i>
   <i type="int" name="NFREE">     0</i>
   <i name="POTIM">      0.50000000</i>
   <i name="SMASS">     -3.00000000</i>
   <i name="SCALEE">      1.00000000</i>
  </separator>
  <separator name="ionic md" >
   <i name="TEBEG">      0.00010000</i>
   <i name="TEEND">      0.00010000</i>
   <i type="int" name="NBLOCK">     1</i>
   <i type="int" name="KBLOCK">     1</i>
   <i type="int" name="NPACO">   256</i>
   <i name="APACO">     16.00000000</i>
  </separator>
  <separator name="symmetry" >
   <i type="int" name="ISYM">     2</i>
   <i name="SYMPREC">      0.00001000</i>
  </separator>
  <separator name="dos" >
   <i type="logical" name="LORBIT"> F  </i>
   <v name="RWIGS">     -1.00000000     -1.00000000</v>
   <i type="int" name="NEDOS">   301</i>
   <i name="EMIN">     10.00000000</i>
   <i name="EMAX">    -10.00000000</i>
   <i name="EFERMI">      0.00000000</i>
  </separator>
  <separator name="writing" >
   <i type="int" name="NWRITE">     2</i>
   <i type="logical" name="LWAVE"> T  </i>
   <i type="logical" name="LCHARG"> T  </i>
   <i type="logical" name="LPARD"> F  </i>
   <i type="logical" name="LVTOT"> F  </i>
   <i type="logical" name="LVHAR"> F  </i>
   <i type="logical" name="LELF"> F  </i>
   <i type="logical" name="LOPTICS"> F  </i>
   <v name="STM">      0.00000000      0.00000000      0.00000000      0.00000000      0.00000000      0.00000000      0.00000000</v>
  </separator>
  <separator name="performance" >
   <i type="int" name="NPAR">    24</i>
   <i type="int" name="NSIM">     4</i>
   <i type="int" name="NBLK">    -1</i>
   <i type="logical" name="LPLANE"> T  </i>
   <i type="logical" name="LSCALAPACK"> F  </i>
   <i type="logical" name="LSCAAWARE"> F  </i>
   <i type="logical" name="LSCALU"> F  </i>
   <i type="logical" name="LASYNC"> F  </i>
   <i type="logical" name="LORBITALREAL"> F  </i>
  </separator>
  <separator name="miscellaneous" >
   <i type="int" name="IDIOT">     3</i>
   <i type="logical" name="LMUSIC"> F  </i>
   <v name="POMASS">     12.01100000     16.00000000</v>
   <v name="DARWINR">      0.00000000      0.00000000</v>
   <v name="DARWINV">      1.00000000      1.00000000</v>
   <i type="logical" name="LCORR"> T  </i>
  </separator>
  <i type="logical" name="GGA_COMPAT"> T  </i>
  <i type="logical" name="LBERRY"> F  </i>
  <i type="int" name="ICORELEVEL">     0</i>
  <i type="logical" name="LDAU"> F  </i>
  <i type="int" name="I_CONSTRAINED_M">     0</i>
  <separator name="electronic exchange-correlation" >
   <i type="string" name="GGA">PE</i>
   <i type="int" name="VOSKOWN">     0</i>
   <i type="logical" name="LHFCALC"> F  </i>
   <i type="string" name="PRECFOCK"></i>
   <i type="logical" name="LSYMGRAD"> F  </i>
   <i type="logical" name="LHFONE"> F  </i>
   <i type="logical" name="LRHFCALC"> F  </i>
   <i type="logical" name="LTHOMAS"> F  </i>
   <i type="logical" name="LMODELHF"> F  </i>
   <i name="ENCUT4O">     -1.00000000</i>
   <i type="int" name="EXXOEP">     0</i>
   <i type="int" name="FOURORBIT">     0</i>
   <i name="AEXX">      0.00000000</i>
   <i name="HFALPHA">      0.00000000</i>
   <i name="MCALPHA">      0.00000000</i>
   <i name="ALDAX">      1.00000000</i>
   <i name="AGGAX">      1.00000000</i>
   <i name="ALDAC">      1.00000000</i>
   <i name="AGGAC">      1.00000000</i>
   <i type="int" name="NKREDX">     1</i>
   <i type="int" name="NKREDY">     1</i>
   <i type="int" name="NKREDZ">     1</i>
   <i type="logical" name="SHIFTRED"> F  </i>
   <i type="logical" name="ODDONLY"> F  </i>
   <i type="logical" name="EVENONLY"> F  </i>
   <i type="int" name="LMAXFOCK">     0</i>
   <i type="int" name="NMAXFOCKAE">     0</i>
   <i type="logical" name="LFOCKAEDFT"> F  </i>
   <i name="HFSCREEN">      0.00000000</i>
   <i name="HFSCREENC">      0.00000000</i>
   <i type="int" name="NBANDSGWLOW">     0</i>
  </separator>
  <separator name="vdW DFT" >
   <i type="logical" name="LUSE_VDW"> F  </i>
   <i name="Zab_VDW">     -0.84910000</i>
   <i name="PARAM1">      0.12340000</i>
   <i name="PARAM2">      1.00000000</i>
   <i name="PARAM3">      0.00000000</i>
  </separator>
  <separator name="model GW" >
   <i type="int" name="MODEL_GW">     0</i>
   <i name="MODEL_EPS0">    153.60000000</i>
   <i name="MODEL_ALPHA">      1.00000000</i>
  </separator>
  <separator name="linear response parameters" >
   <i type="logical" name="LEPSILON"> F  </i>
   <i type="logical" name="LRPA"> F  </i>
   <i type="logical" name="LNABLA"> F  </i>
   <i type="logical" name="LVEL"> F  </i>
   <i type="int" name="KINTER">     0</i>
   <i name="CSHIFT">      0.10000000</i>
   <i name="OMEGAMAX">     -1.00000000</i>
   <i name="DEG_THRESHOLD">      0.00200000</i>
  </separator>
  <separator name="orbital magnetization" >
   <i type="logical" name="NUCIND"> F  </i>
   <v name="MAGPOS">      0.00000000      0.00000000      0.00000000</v>
   <i type="logical" name="LNICSALL"> T  </i>
   <i type="logical" name="ORBITALMAG"> F  </i>
   <i type="logical" name="LMAGBLOCH"> F  </i>
   <i type="logical" name="LCHIMAG"> F  </i>
   <i type="logical" name="LGAUGE"> T  </i>
   <i type="int" name="MAGATOM">     0</i>
   <v name="MAGDIPOL">      0.00000000      0.00000000      0.00000000</v>
   <v name="AVECCONST">      0.00000000      0.00000000      0.00000000</v>
  </separator>
  <separator name="response functions" >
   <i type="logical" name="LADDER"> F  </i>
   <i type="logical" name="LFXC"> F  </i>
   <i type="logical" name="LHARTREE"> T  </i>
   <i type="int" name="IBSE">     0</i>
   <v type="int" name="KPOINT">    -1     0     0     0</v>
   <i type="logical" name="LTCTE"> F  </i>
   <i type="logical" name="LTETE"> F  </i>
   <i type="logical" name="LTRIPLET"> F  </i>
   <i type="logical" name="LFXCEPS"> F  </i>
   <i type="logical" name="LFXHEG"> F  </i>
   <i type="int" name="NATURALO">     0</i>
   <i type="logical" name="L2ORDER"> F  </i>
   <i type="logical" name="LUSEW"> F  </i>
   <i name="ENCUTGW">     -2.00000000</i>
   <i name="ENCUTGWSOFT">     -2.00000000</i>
   <i name="ENCUTLF">     -1.00000000</i>
   <i type="int" name="LMAXMP2">    -1</i>
   <i name="SCISSOR">      0.00000000</i>
   <i type="int" name="NOMEGA">     0</i>
   <i type="int" name="NOMEGAR">     0</i>
   <i type="int" name="NBANDSGW">    -1</i>
   <i type="int" name="NBANDSO">    -1</i>
   <i type="int" name="NBANDSV">    -1</i>
   <i type="int" name="NELM">     1</i>
   <i type="int" name="NELMHF">     1</i>
   <i type="int" name="DIM">     3</i>
   <i type="int" name="ANTIRES">     0</i>
   <i name="OMEGAMAX">    -30.00000000</i>
   <i name="OMEGAMIN">    -30.00000000</i>
   <i name="OMEGATL">   -200.00000000</i>
   <i type="int" name="OMEGAGRID">     0</i>
   <i name="CSHIFT">     -0.10000000</i>
   <i type="logical" name="SELFENERGY"> F  </i>
   <i type="logical" name="LSPECTRAL"> F  </i>
   <i type="logical" name="LSPECTRALGW"> F  </i>
   <i type="logical" name="LSINGLES"> F  </i>
   <i type="logical" name="LFERMIGW"> F  </i>
   <i type="logical" name="ODDONLYGW"> F  </i>
   <i type="logical" name="EVENONLYGW"> F  </i>
   <i type="int" name="NKREDLFX">     1</i>
   <i type="int" name="NKREDLFY">     1</i>
   <i type="int" name="NKREDLFZ">     1</i>
   <i type="int" name="MAXMEM">  1800</i>
   <i type="int" name="TELESCOPE">     0</i>
   <i type="int" name="TAUPAR">     1</i>
   <i type="int" name="OMEGAPAR">    -1</i>
   <i name="LAMBDA">      1.00000000</i>
  </separator>
  <separator name="External order field" >
   <i name="OFIELD_KAPPA">      0.00000000</i>
   <v name="OFIELD_K">      0.00000000      0.00000000      0.00000000</v>
   <i name="OFIELD_Q6_NEAR">      0.00000000</i>
   <i name="OFIELD_Q6_FAR">      0.00000000</i>
   <i name="OFIELD_A">      0.00000000</i>
  </separator>
 </parameters>
 <atominfo>
  <atoms>       2 </atoms>
  <types>       2 </types>
  <array name="atoms" >
   <dimension dim="1">ion</dimension>
   <field type="string">element</field>
   <field type="int">atomtype</field>
   <set>
    <rc><c>C </c><c>   1</c></rc>
    <rc><c>O </c><c>   2</c></rc>
   </set>
  </array>
  <array name="atomtypes" >
   <dimension dim="1">type</dimension>
   <field type="int">atomspertype</field>
   <field type="string">element</field>
   <field>mass</field>
   <field>valence</field>
   <field type="string">pseudopotential</field>
   <set>
    <rc><c>   1</c><c>C </c><c>     12.01100000</c><c>      4.00000000</c><c>  PAW_PBE C 08Apr2002                   </c></rc>
    <rc><c>   1</c><c>O </c><c>     16.00000000</c><c>      6.00000000</c><c>  PAW_PBE O 08Apr2002                   </c></rc>
   </set>
  </array>
 </atominfo>
 <structure name="initialpos" >
  <crystal>
   <varray name="basis" >
    <v>       8.00000000       0.00000000       0.00000000 </v>
    <v>       0.00000000       8.00000000       0.00000000 </v>
    <v>       0.00000000       0.00000000       8.00000000 </v>
   </varray>
   <i name="volume">    512.00000000 </i>
   <varray name="rec_basis" >
    <v>       0.12500000       0.00000000       0.00000000 </v>
    <v>       0.00000000       0.12500000       0.00000000 </v>
    <v>       0.00000000       0.00000000       0.12500000 </v>
   </varray>
  </crystal>
  <varray name="positions" >
   <v>       0.42500000       0.50000000       0.50000000 </v>
   <v>       0.57500000       0.50000000       0.50000000 </v>
  </varray>
 </structure>
 <calculation>
  <scstep>
   <time name="dav">    0.03    0.03</time>
   <time name="total">    0.06    0.06</time>
   <energy>
    <i name="alphaZ">      0.85343271 </i>
    <i name="ewald">     34.74675830 </i>
    <i name="hartreedc">   -521.06106673 </i>
    <i name="XCdc">     39.96418190 </i>
    <i name="pawpsdc">    791.12917303 </i>
    <i name="pawaedc">   -793.40077788 </i>
    <i name="eentropy">      0.01159581 </i>
    <i name="bandstr">   -145.93883695 </i>
    <i name="atom">    579.07123046 </i>
    <i name="e_fr_energy">    -14.62430934 </i>
    <i name="e_wo_entrp">    -14.63590515 </i>
    <i name="e_0_energy">    -14.62817461 </i>
   </energy>
  </scstep>
  <scstep>
   <time name="dav">    0.02    0.02</time>
   <time name="total">    0.04    0.04</time>
   <energy>
    <i name="alphaZ">      0.85343271 </i>
    <i name="ewald">     34.74675830 </i>
    <i name="hartreedc">   -521.06069512 </i>
    <i name="XCdc">     39.96415626 </i>
    <i name="pawpsdc">    791.12917346 </i>
    <i name="pawaedc">   -793.40076802 </i>
    <i name="eentropy">      0.01159581 </i>
    <i name="bandstr">   -145.93919320 </i>
    <i name="atom">    579.07123046 </i>
    <i name="e_fr_energy">    -14.62430934 </i>
    <i name="e_wo_entrp">    -14.63590515 </i>
    <i name="e_0_energy">    -14.62817461 </i>
   </energy>
  </scstep>
  <structure>
   <crystal>
    <varray name="basis" >
     <v>       8.00000000       0.00000000       0.00000000 </v>
     <v>       0.00000000       8.00000000       0.00000000 </v>
     <v>       0.00000000       0.00000000       8.00000000 </v>
    </varray>
    <i name="volume">    512.00000000 </i>
    <varray name="rec_basis" >
     <v>       0.12500000       0.00000000       0.00000000 </v>
     <v>       0.00000000       0.12500000       0.00000000 </v>
     <v>       0.00000000       0.00000000       0.12500000 </v>
    </varray>
   </crystal>
   <varray name="positions" >
    <v>       0.42500000       0.50000000       0.50000000 </v>
    <v>       0.57500000       0.50000000       0.50000000 </v>
   </varray>
  </structure>
  <varray name="forces" >
   <v>       5.18355043       0.00000000      -0.00000000 </v>
   <v>      -5.18355043      -0.00000000       0.00000000 </v>
  </varray>
  <varray name="stress" >
   <v>     -27.49437807       0.00000000       0.00000000 </v>
   <v>      -0.00000000      -7.61157768       0.00000000 </v>
   <v>       0.00000000       0.00000000      -7.61157768 </v>
  </varray>
  <energy>
   <i name="e_fr_energy">    -14.62430934 </i>
   <i name="e_wo_entrp">    -14.62817461 </i>
   <i name="e_0_energy">      0.01159581 </i>
  </energy>
  <time name="totalsc">    0.81    0.89</time>
  <eigenvalues>
   <array>
    <dimension dim="1">band</dimension>
    <dimension dim="2">kpoint</dimension>
    <dimension dim="3">spin</dimension>
    <field>eigene</field>
    <field>occ</field>
    <set>
     <set comment="spin 1">
      <set comment="kpoint 1">
       <r>  -28.2185    1.0000 </r>
       <r>  -13.8446    1.0000 </r>
       <r>  -11.0088    1.0000 </r>
       <r>  -11.0088    1.0000 </r>
       <r>   -8.8888    1.0000 </r>
       <r>   -2.3572    0.0000 </r>
       <r>   -2.3572    0.0000 </r>
       <r>   -0.2754    0.0000 </r>
       <r>    1.6654    0.0000 </r>
       <r>    1.8714    0.0000 </r>
       <r>    1.8714    0.0000 </r>
       <r>    1.8889    0.0000 </r>
       <r>    1.9274    0.0000 </r>
       <r>    2.4793    0.0000 </r>
       <r>    3.6817    0.0000 </r>
       <r>    4.0634    0.0000 </r>
       <r>    4.0715    0.0000 </r>
       <r>    4.0715    0.0000 </r>
       <r>    4.3105    0.0000 </r>
       <r>    4.3158    0.0000 </r>
       <r>    4.3158    0.0000 </r>
       <r>    4.3350    0.0000 </r>
       <r>    4.3875    0.0000 </r>
       <r>    4.4066    0.0000 </r>
      </set>
     </set>
    </set>
   </array>
  </eigenvalues>
  <separator name="orbital magnetization" >
   <v name="MAGDIPOLOUT">      0.00000000      0.00000000      0.00000000</v>
  </separator>
  <dos>
   <i name="efermi">     -8.72044428 </i>
   <total>
    <array>
     <dimension dim="1">gridpoints</dimension>
     <dimension dim="2">spin</dimension>
     <field>energy</field>
     <field>total</field>
     <field>integrated</field>
     <set>
      <set comment="spin 1">
       <r>   -30.2185     0.0000     0.0000 </r>
       <r>   -30.0964     0.0000     0.0000 </r>
       <r>   -29.9743     0.0000     0.0000 </r>
       <r>   -29.8522    -0.0000    -0.0000 </r>
       <r>   -29.7302    -0.0000    -0.0000 </r>
       <r>   -29.6081    -0.0000    -0.0000 </r>
       <r>   -29.4860    -0.0000    -0.0000 </r>
       <r>   -29.3639    -0.0000    -0.0000 </r>
       <r>   -29.2418    -0.0000    -0.0000 </r>
       <r>   -29.1197    -0.0000    -0.0000 </r>
       <r>   -28.9977    -0.0000    -0.0000 </r>
       <r>   -28.8756    -0.0003    -0.0000 </r>
       <r>   -28.7535    -0.0081    -0.0010 </r>
       <r>   -28.6314    -0.0973    -0.0129 </r>
       <r>   -28.5093    -0.3798    -0.0593 </r>
       <r>   -28.3872     0.4789    -0.0008 </r>
       <r>   -28.2652     5.0587     0.6168 </r>
       <r>   -28.1431     7.9778     1.5907 </r>
       <r>   -28.0210     3.7419     2.0476 </r>
       <r>   -27.8989    -0.0102     2.0463 </r>
       <r>   -27.7768    -0.3163     2.0077 </r>
       <r>   -27.6547    -0.0591     2.0005 </r>
       <r>   -27.5326    -0.0040     2.0000 </r>
       <r>   -27.4106    -0.0001     2.0000 </r>
       <r>   -27.2885    -0.0000     2.0000 </r>
       <r>   -27.1664    -0.0000     2.0000 </r>
       <r>   -27.0443    -0.0000     2.0000 </r>
       <r>   -26.9222    -0.0000     2.0000 </r>
       <r>   -26.8001     0.0000     2.0000 </r>
       <r>   -26.6781     0.0000     2.0000 </r>
       <r>   -26.5560     0.0000     2.0000 </r>
       <r>   -26.4339     0.0000     2.0000 </r>
       <r>   -26.3118     0.0000     2.0000 </r>
       <r>   -26.1897     0.0000     2.0000 </r>
       <r>   -26.0676     0.0000     2.0000 </r>
       <r>   -25.9456     0.0000     2.0000 </r>
       <r>   -25.8235     0.0000     2.0000 </r>
       <r>   -25.7014     0.0000     2.0000 </r>
       <r>   -25.5793     0.0000     2.0000 </r>
       <r>   -25.4572     0.0000     2.0000 </r>
       <r>   -25.3351     0.0000     2.0000 </r>
       <r>   -25.2131     0.0000     2.0000 </r>
       <r>   -25.0910     0.0000     2.0000 </r>
       <r>   -24.9689     0.0000     2.0000 </r>
       <r>   -24.8468     0.0000     2.0000 </r>
       <r>   -24.7247     0.0000     2.0000 </r>
       <r>   -24.6026     0.0000     2.0000 </r>
       <r>   -24.4806     0.0000     2.0000 </r>
       <r>   -24.3585     0.0000     2.0000 </r>
       <r>   -24.2364     0.0000     2.0000 </r>
       <r>   -24.1143     0.0000     2.0000 </r>
       <r>   -23.9922     0.0000     2.0000 </r>
       <r>   -23.8701     0.0000     2.0000 </r>
       <r>   -23.7481     0.0000     2.0000 </r>
       <r>   -23.6260     0.0000     2.0000 </r>
       <r>   -23.5039     0.0000     2.0000 </r>
       <r>   -23.3818     0.0000     2.0000 </r>
       <r>   -23.2597     0.0000     2.0000 </r>
       <r>   -23.1376     0.0000     2.0000 </r>
       <r>   -23.0156     0.0000     2.0000 </r>
       <r>   -22.8935     0.0000     2.0000 </r>
       <r>   -22.7714     0.0000     2.0000 </r>
       <r>   -22.6493     0.0000     2.0000 </r>
       <r>   -22.5272     0.0000     2.0000 </r>
       <r>   -22.4051     0.0000     2.0000 </r>
       <r>   -22.2831     0.0000     2.0000 </r>
       <r>   -22.1610     0.0000     2.0000 </r>
       <r>   -22.0389     0.0000     2.0000 </r>
       <r>   -21.9168     0.0000     2.0000 </r>
       <r>   -21.7947     0.0000     2.0000 </r>
       <r>   -21.6726     0.0000     2.0000 </r>
       <r>   -21.5506     0.0000     2.0000 </r>
       <r>   -21.4285     0.0000     2.0000 </r>
       <r>   -21.3064     0.0000     2.0000 </r>
       <r>   -21.1843     0.0000     2.0000 </r>
       <r>   -21.0622     0.0000     2.0000 </r>
       <r>   -20.9401     0.0000     2.0000 </r>
       <r>   -20.8181     0.0000     2.0000 </r>
       <r>   -20.6960     0.0000     2.0000 </r>
       <r>   -20.5739     0.0000     2.0000 </r>
       <r>   -20.4518     0.0000     2.0000 </r>
       <r>   -20.3297     0.0000     2.0000 </r>
       <r>   -20.2076     0.0000     2.0000 </r>
       <r>   -20.0855     0.0000     2.0000 </r>
       <r>   -19.9635     0.0000     2.0000 </r>
       <r>   -19.8414     0.0000     2.0000 </r>
       <r>   -19.7193     0.0000     2.0000 </r>
       <r>   -19.5972     0.0000     2.0000 </r>
       <r>   -19.4751     0.0000     2.0000 </r>
       <r>   -19.3530     0.0000     2.0000 </r>
       <r>   -19.2310     0.0000     2.0000 </r>
       <r>   -19.1089     0.0000     2.0000 </r>
       <r>   -18.9868     0.0000     2.0000 </r>
       <r>   -18.8647     0.0000     2.0000 </r>
       <r>   -18.7426     0.0000     2.0000 </r>
       <r>   -18.6205     0.0000     2.0000 </r>
       <r>   -18.4985     0.0000     2.0000 </r>
       <r>   -18.3764     0.0000     2.0000 </r>
       <r>   -18.2543     0.0000     2.0000 </r>
       <r>   -18.1322     0.0000     2.0000 </r>
       <r>   -18.0101     0.0000     2.0000 </r>
       <r>   -17.8880     0.0000     2.0000 </r>
       <r>   -17.7660     0.0000     2.0000 </r>
       <r>   -17.6439     0.0000     2.0000 </r>
       <r>   -17.5218     0.0000     2.0000 </r>
       <r>   -17.3997     0.0000     2.0000 </r>
       <r>   -17.2776     0.0000     2.0000 </r>
       <r>   -17.1555     0.0000     2.0000 </r>
       <r>   -17.0335     0.0000     2.0000 </r>
       <r>   -16.9114     0.0000     2.0000 </r>
       <r>   -16.7893     0.0000     2.0000 </r>
       <r>   -16.6672     0.0000     2.0000 </r>
       <r>   -16.5451     0.0000     2.0000 </r>
       <r>   -16.4230     0.0000     2.0000 </r>
       <r>   -16.3010     0.0000     2.0000 </r>
       <r>   -16.1789     0.0000     2.0000 </r>
       <r>   -16.0568     0.0000     2.0000 </r>
       <r>   -15.9347     0.0000     2.0000 </r>
       <r>   -15.8126     0.0000     2.0000 </r>
       <r>   -15.6905     0.0000     2.0000 </r>
       <r>   -15.5685     0.0000     2.0000 </r>
       <r>   -15.4464    -0.0000     2.0000 </r>
       <r>   -15.3243    -0.0000     2.0000 </r>
       <r>   -15.2022    -0.0000     2.0000 </r>
       <r>   -15.0801    -0.0000     2.0000 </r>
       <r>   -14.9580    -0.0000     2.0000 </r>
       <r>   -14.8360    -0.0000     2.0000 </r>
       <r>   -14.7139    -0.0000     2.0000 </r>
       <r>   -14.5918    -0.0000     2.0000 </r>
       <r>   -14.4697    -0.0007     1.9999 </r>
       <r>   -14.3476    -0.0170     1.9978 </r>
       <r>   -14.2255    -0.1583     1.9785 </r>
       <r>   -14.1035    -0.3938     1.9304 </r>
       <r>   -13.9814     1.3224     2.0919 </r>
       <r>   -13.8593     6.4253     2.8763 </r>
       <r>   -13.7372     7.3990     3.7796 </r>
       <r>   -13.6151     2.3696     4.0689 </r>
       <r>   -13.4930    -0.3005     4.0322 </r>
       <r>   -13.3710    -0.2303     4.0041 </r>
       <r>   -13.2489    -0.0317     4.0002 </r>
       <r>   -13.1268    -0.0017     4.0000 </r>
       <r>   -13.0047    -0.0000     4.0000 </r>
       <r>   -12.8826    -0.0000     4.0000 </r>
       <r>   -12.7605    -0.0000     4.0000 </r>
       <r>   -12.6384    -0.0000     4.0000 </r>
       <r>   -12.5164    -0.0000     4.0000 </r>
       <r>   -12.3943    -0.0000     4.0000 </r>
       <r>   -12.2722    -0.0000     4.0000 </r>
       <r>   -12.1501    -0.0000     4.0000 </r>
       <r>   -12.0280    -0.0000     4.0000 </r>
       <r>   -11.9059    -0.0000     4.0000 </r>
       <r>   -11.7839    -0.0000     4.0000 </r>
       <r>   -11.6618    -0.0006     3.9999 </r>
       <r>   -11.5397    -0.0179     3.9977 </r>
       <r>   -11.4176    -0.2082     3.9723 </r>
       <r>   -11.2955    -0.7721     3.8781 </r>
       <r>   -11.1734     1.1392     4.0171 </r>
       <r>   -11.0514    10.4908     5.2979 </r>
       <r>   -10.9293    15.8723     7.2356 </r>
       <r>   -10.8072     7.1114     8.1038 </r>
       <r>   -10.6851    -0.1228     8.0888 </r>
       <r>   -10.5630    -0.6109     8.0142 </r>
       <r>   -10.4409    -0.1094     8.0009 </r>
       <r>   -10.3189    -0.0071     8.0000 </r>
       <r>   -10.1968    -0.0002     8.0000 </r>
       <r>   -10.0747    -0.0000     8.0000 </r>
       <r>    -9.9526    -0.0000     8.0000 </r>
       <r>    -9.8305    -0.0000     8.0000 </r>
       <r>    -9.7084    -0.0000     8.0000 </r>
       <r>    -9.5864    -0.0001     8.0000 </r>
       <r>    -9.4643    -0.0029     7.9996 </r>
       <r>    -9.3422    -0.0474     7.9938 </r>
       <r>    -9.2201    -0.2851     7.9590 </r>
       <r>    -9.0980    -0.1439     7.9415 </r>
       <r>    -8.9759     3.2201     8.3346 </r>
       <r>    -8.8539     7.8335     9.2909 </r>
       <r>    -8.7318     5.5815     9.9723 </r>
       <r>    -8.6097     0.7496    10.0639 </r>
       <r>    -8.4876    -0.3947    10.0157 </r>
       <r>    -8.3655    -0.1173    10.0014 </r>
       <r>    -8.2434    -0.0107    10.0000 </r>
       <r>    -8.1214    -0.0004    10.0000 </r>
       <r>    -7.9993    -0.0000    10.0000 </r>
       <r>    -7.8772    -0.0000    10.0000 </r>
       <r>    -7.7551    -0.0000    10.0000 </r>
       <r>    -7.6330    -0.0000    10.0000 </r>
       <r>    -7.5109     0.0000    10.0000 </r>
       <r>    -7.3889     0.0000    10.0000 </r>
       <r>    -7.2668     0.0000    10.0000 </r>
       <r>    -7.1447     0.0000    10.0000 </r>
       <r>    -7.0226     0.0000    10.0000 </r>
       <r>    -6.9005     0.0000    10.0000 </r>
       <r>    -6.7784     0.0000    10.0000 </r>
       <r>    -6.6564     0.0000    10.0000 </r>
       <r>    -6.5343     0.0000    10.0000 </r>
       <r>    -6.4122     0.0000    10.0000 </r>
       <r>    -6.2901     0.0000    10.0000 </r>
       <r>    -6.1680     0.0000    10.0000 </r>
       <r>    -6.0459     0.0000    10.0000 </r>
       <r>    -5.9239     0.0000    10.0000 </r>
       <r>    -5.8018     0.0000    10.0000 </r>
       <r>    -5.6797     0.0000    10.0000 </r>
       <r>    -5.5576     0.0000    10.0000 </r>
       <r>    -5.4355     0.0000    10.0000 </r>
       <r>    -5.3134     0.0000    10.0000 </r>
       <r>    -5.1913     0.0000    10.0000 </r>
       <r>    -5.0693     0.0000    10.0000 </r>
       <r>    -4.9472     0.0000    10.0000 </r>
       <r>    -4.8251     0.0000    10.0000 </r>
       <r>    -4.7030     0.0000    10.0000 </r>
       <r>    -4.5809     0.0000    10.0000 </r>
       <r>    -4.4588     0.0000    10.0000 </r>
       <r>    -4.3368     0.0000    10.0000 </r>
       <r>    -4.2147     0.0000    10.0000 </r>
       <r>    -4.0926     0.0000    10.0000 </r>
       <r>    -3.9705    -0.0000    10.0000 </r>
       <r>    -3.8484    -0.0000    10.0000 </r>
       <r>    -3.7263    -0.0000    10.0000 </r>
       <r>    -3.6043    -0.0000    10.0000 </r>
       <r>    -3.4822    -0.0000    10.0000 </r>
       <r>    -3.3601    -0.0000    10.0000 </r>
       <r>    -3.2380    -0.0000    10.0000 </r>
       <r>    -3.1159    -0.0000    10.0000 </r>
       <r>    -2.9938    -0.0010     9.9999 </r>
       <r>    -2.8718    -0.0262     9.9967 </r>
       <r>    -2.7497    -0.2680     9.9640 </r>
       <r>    -2.6276    -0.7982     9.8665 </r>
       <r>    -2.5055     1.9602    10.1058 </r>
       <r>    -2.3834    11.9140    11.5603 </r>
       <r>    -2.2613    15.3479    13.4340 </r>
       <r>    -2.1393     5.6878    14.1284 </r>
       <r>    -2.0172    -0.4444    14.0742 </r>
       <r>    -1.8951    -0.5227    14.0104 </r>
       <r>    -1.7730    -0.0801    14.0006 </r>
       <r>    -1.6509    -0.0046    14.0000 </r>
       <r>    -1.5288    -0.0001    14.0000 </r>
       <r>    -1.4068    -0.0000    14.0000 </r>
       <r>    -1.2847    -0.0000    14.0000 </r>
       <r>    -1.1626    -0.0000    14.0000 </r>
       <r>    -1.0405    -0.0000    14.0000 </r>
       <r>    -0.9184    -0.0004    13.9999 </r>
       <r>    -0.7963    -0.0113    13.9986 </r>
       <r>    -0.6743    -0.1218    13.9837 </r>
       <r>    -0.5522    -0.3965    13.9353 </r>
       <r>    -0.4301     0.8105    14.0342 </r>
       <r>    -0.3080     5.6862    14.7284 </r>
       <r>    -0.1859     7.7940    15.6800 </r>
       <r>    -0.0638     3.1154    16.0603 </r>
       <r>     0.0582    -0.1672    16.0399 </r>
       <r>     0.1803    -0.2786    16.0059 </r>
       <r>     0.3024    -0.0453    16.0003 </r>
       <r>     0.4245    -0.0027    16.0000 </r>
       <r>     0.5466    -0.0001    16.0000 </r>
       <r>     0.6687    -0.0000    16.0000 </r>
       <r>     0.7907    -0.0000    16.0000 </r>
       <r>     0.9128    -0.0000    16.0000 </r>
       <r>     1.0349    -0.0006    15.9999 </r>
       <r>     1.1570    -0.0152    15.9981 </r>
       <r>     1.2791    -0.1519    15.9795 </r>
       <r>     1.4012    -0.4998    15.9185 </r>
       <r>     1.5232     0.3727    15.9640 </r>
       <r>     1.6453     4.8990    16.5621 </r>
       <r>     1.7674    15.0670    18.4015 </r>
       <r>     1.8895    29.9892    22.0627 </r>
       <r>     2.0116    27.0882    25.3697 </r>
       <r>     2.1337     7.0846    26.2347 </r>
       <r>     2.2558    -1.5713    26.0428 </r>
       <r>     2.3778     1.8228    26.2654 </r>
       <r>     2.4999     7.4449    27.1743 </r>
       <r>     2.6220     6.1826    27.9291 </r>
       <r>     2.7441     1.1403    28.0683 </r>
       <r>     2.8662    -0.3983    28.0196 </r>
       <r>     2.9883    -0.1455    28.0019 </r>
       <r>     3.1103    -0.0181    27.9997 </r>
       <r>     3.2324    -0.0519    27.9933 </r>
       <r>     3.3545    -0.2963    27.9572 </r>
       <r>     3.4766    -0.1066    27.9441 </r>
       <r>     3.5987     3.2983    28.3468 </r>
       <r>     3.7208     7.1674    29.2218 </r>
       <r>     3.8428     4.4344    29.7632 </r>
       <r>     3.9649     7.1525    30.6364 </r>
       <r>     4.0870    20.1605    33.0977 </r>
       <r>     4.2091    28.1093    36.5294 </r>
       <r>     4.3312    41.2098    41.5604 </r>
       <r>     4.4533    40.8865    46.5520 </r>
       <r>     4.5753    14.4818    48.3200 </r>
       <r>     4.6974    -0.9793    48.2004 </r>
       <r>     4.8195    -1.3834    48.0315 </r>
       <r>     4.9416    -0.2413    48.0021 </r>
       <r>     5.0637    -0.0164    48.0001 </r>
       <r>     5.1858    -0.0005    48.0000 </r>
       <r>     5.3078    -0.0000    48.0000 </r>
       <r>     5.4299    -0.0000    48.0000 </r>
       <r>     5.5520    -0.0000    48.0000 </r>
       <r>     5.6741    -0.0000    48.0000 </r>
       <r>     5.7962     0.0000    48.0000 </r>
       <r>     5.9183     0.0000    48.0000 </r>
       <r>     6.0403     0.0000    48.0000 </r>
       <r>     6.1624     0.0000    48.0000 </r>
       <r>     6.2845     0.0000    48.0000 </r>
       <r>     6.4066     0.0000    48.0000 </r>
      </set>
     </set>
    </array>
   </total>
  </dos>
 </calculation>
 <structure name="finalpos" >
  <crystal>
   <varray name="basis" >
    <v>       8.00000000       0.00000000       0.00000000 </v>
    <v>       0.00000000       8.00000000       0.00000000 </v>
    <v>       0.00000000       0.00000000       8.00000000 </v>
   </varray>
   <i name="volume">    512.00000000 </i>
   <varray name="rec_basis" >
    <v>       0.12500000       0.00000000       0.00000000 </v>
    <v>       0.00000000       0.12500000       0.00000000 </v>
    <v>       0.00000000       0.00000000       0.12500000 </v>
   </varray>
  </crystal>
  <varray name="positions" >
   <v>       0.42500000       0.50000000       0.50000000 </v>
   <v>       0.57500000       0.50000000       0.50000000 </v>
  </varray>
 </structure>
</modeling>
